/*--------------------------------*- C++ -*----------------------------------*\
  =========                 |
  \\      /  F ield         | OpenFOAM: The Open Source CFD Toolbox
   \\    /   O peration     | Website:  https://openfoam.org
    \\  /    A nd           | Version:  10
     \\/     M anipulation  |
\*---------------------------------------------------------------------------*/
FoamFile
{
    format      ascii;
    class       volScalarField;
    location    "0";
    object      thickness;
}
// * * * * * * * * * * * * * * * * * * * * * * * * * * * * * * * * * * * * * //

dimensions      [0 0 0 0 0 0 0];

internalField   uniform 0;

boundaryField
{
    front
    {
        type            cyclic;
    }
    Back
    {
        type            cyclic;
    }
    inlet
    {
        type            fixedValue;
        value           uniform 0;
    }
    outlet
    {
        type            fixedValue;
        value           uniform 0;
    }
    upperPatch
    {
        type            fixedValue;
        value           uniform 0;
    }
    ground
    {
        type            fixedValue;
        value           nonuniform List<scalar> 
8153
(
0
0
0
0
0
0
0
0
0
0
0
0
0
0
0
0
0
0
0
0
0
0
0
0
0
0
0
0
0
0
0
0
0
0
0
0
0
0
0
0
0
0
0
0
0
0
0
0
0
0
0
0
0
0
0
0
0
0
0
0
0
0
0
0
0
0
0
0
0
0
0
0
0
0
0
0
0
0
0
0
0
0
0
0
0
0
0
0
0
0
0
0
0
0
0
0
0
0
0
0
0.442119
0.438453
0.442569
0.328915
0.44248
0.662887
0.746933
0.661982
0.76617
0.131478
0.717133
0.882261
0.883668
0.879893
0.884443
0.785415
0.883523
0.885355
0.885355
0.885354
0.885355
0.879253
0.885355
0.885355
0.885355
0.885355
0.885355
0.880153
0.885355
0.885355
0.885355
0.885355
0.885355
0.880153
0.885355
0.885355
0.885355
0.885355
0.885355
0.880153
0.885355
0.885355
0.885355
0.885355
0.885355
0.880153
0.885355
0.885355
0.885355
0.885355
0.885355
0.880153
0.885355
0.885355
0.885355
0.885355
0.885355
0.880153
0.885355
0.885355
0.885355
0.885355
0.885355
0.880153
0.885355
0.885355
0.885355
0.885355
0.885355
0.880153
0.885355
0.885355
0.885355
0.885355
0.885355
0.880153
0.885355
0.885355
0.885355
0.885355
0.885355
0.880153
0.885355
0.885355
0.885355
0.885355
0.885355
0.880153
0.885355
0.885355
0.885355
0.885355
0.885355
0.880153
0.885355
0.885355
0.885355
0.885355
0.885355
0.880153
0.885355
0.885355
0.885355
0.885354
0.885355
0.879992
0.885354
0.882261
0.883668
0.879894
0.884398
0.836088
0.879529
0.662887
0.746933
0.661701
0.762912
0.159106
0.6136
0.772578
0.839948
0.723476
0.762384
0.779143
0.442024
0.770383
0.522151
0.442565
0.442677
0.522496
0.442677
0.442677
0.498861
0.442677
0.512213
0.198289
0.440949
0.438484
0.442632
0.440067
0.337537
0.439189
0.432729
0.458778
0.48475
0.0929901
0.435288
0.440323
0.442628
0.441249
0.389788
0.401448
0.0977696
0.864207
0.813133
0.780849
0.457364
0.83315
0.842761
0.485946
0.493443
0.836657
0.703235
0.491912
0.442034
0.70108
0.442567
0.442677
0.442677
0.170258
0.675597
0.442677
0.680028
0.235169
0.442677
0.44222
0.550764
0.780866
0.462522
0.496433
0.504196
0.501785
0.442621
0.442677
0.442663
0.442677
0.442677
0.442678
0.442678
0.442676
0.442678
0.442677
0.436666
0.418818
0.0928973
0.12158
0.253152
0.442674
0.442677
0.442677
0.442678
0.442677
0.442677
0.442041
0.419193
0.442591
0.438845
0.338625
0.427473
0.437374
0.411115
0.371915
0.432764
0.376742
0.433241
0.419367
0.423941
0.41776
0.226238
0.0284487
0.150762
0.185951
0.424792
0.512026
0.553349
0.557472
0.558631
0.55893
0.558935
0.558935
0.558935
0.558935
0.558935
0.558935
0.558935
0.558935
0.558935
0.558935
0.558935
0.558935
0.558935
0.558935
0.558935
0.558935
0.558935
0.558935
0.558935
0.558935
0.558935
0.558935
0.558935
0.558935
0.558935
0.558935
0.558935
0.558935
0.558935
0.558935
0.558935
0.558935
0.558935
0.558935
0.558935
0.558935
0.55893
0.558887
0.557472
0.558631
0.553349
0.42479
0.185952
0.0284488
0.150762
0.41776
0.226237
0.441144
0.442446
0.44214
0.311698
0.440907
0.343594
0.328914
0.343593
0.386964
0.428433
0.419427
0.864208
0.813438
0.884663
0.883579
0.806975
0.760829
0.441602
0.442386
0.442657
0.442602
0.442677
0.442677
0.442677
0.442677
0.425502
0.360889
0.409111
0.370365
0.396016
0.442677
0.442677
0.442677
0.442677
0.44041
0.435198
0.437707
0.44248
0.441275
0.361437
0.207388
0.441088
0.326616
0.128588
0.390182
0.32138
0.419825
0.391914
0.435088
0.442678
0.442678
0.442678
0.442678
0.442678
0.442678
0.442678
0.442678
0.442678
0.442678
0.442678
0.442678
0.442678
0.442678
0.442678
0.442678
0.442678
0.442678
0.442678
0.442678
0.442678
0.442678
0.442678
0.442678
0.442678
0.442678
0.442678
0.442678
0.442678
0.442678
0.442678
0.442678
0.442678
0.442678
0.442678
0.442678
0.442678
0.442678
0.442678
0.442678
0.442678
0.442678
0.442678
0.442678
0.442678
0.442678
0.442678
0.442678
0.442678
0.442678
0.442678
0.442678
0.442678
0.442678
0.442678
0.442678
0.442678
0.442678
0.442678
0.442678
0.442678
0.442678
0.442678
0.442678
0.442678
0.442678
0.442678
0.420019
0.391931
0.390641
0.321424
0.34991
0.327924
0.128704
0.362306
0.207468
0.396598
0.44248
0.441275
0.429833
0.439482
0.418042
0.43094
0.429473
0.439888
0.441153
0.440856
0.442305
0.441526
0.438085
0.423016
0.422836
0.403252
0.357058
0.295635
0.42208
0.521153
0.524676
0.525802
0.525805
0.525805
0.525805
0.525805
0.525805
0.525805
0.525805
0.525805
0.525805
0.525805
0.525805
0.525805
0.525805
0.525805
0.525805
0.525805
0.525805
0.525805
0.525805
0.525805
0.525805
0.525805
0.525805
0.525805
0.525805
0.525648
0.524975
0.491922
0.434194
0.555599
0.806965
0.582975
0.492274
0.643637
0.493311
0.663155
0.481372
0.655503
0.453236
0.442642
0.442677
0.442668
0.442677
0.442677
0.442678
0.442678
0.442676
0.442678
0.442677
0.430688
0.371914
0.0562267
0.112008
0.020945
0.364763
0.0970282
0.149459
0.442674
0.442677
0.442677
0.442678
0.442677
0.442677
0.442673
0.442407
0.441706
0.442654
0.442646
0.440781
0.435842
0.400636
0.434657
0.383801
0.0861817
0.160377
0.411657
0.0706681
0.412153
0.0866926
0.267275
0.388315
0.0761766
0.270621
0.474081
0.501189
0.60419
0.435637
0.441054
0.442574
0.442394
0.442676
0.418752
0.381125
0.323256
0.120429
0.441963
0.442186
0.442469
0.44081
0.442675
0.442677
0.442677
0.442677
0.442677
0.442676
0.433303
0.438549
0.121616
0.307121
0.389124
0.442675
0.442677
0.442677
0.439869
0.442191
0.412756
0.404684
0.434776
0.44002
0.426815
0.442641
0.44226
0.442675
0.429493
0.435208
0.429548
0.433041
0.434209
0.434839
0.326844
0.326843
0.366
0.435091
0.420804
0.389721
0.422617
0.412404
0.362295
0.435826
0.390374
0.438696
0.425218
0.441119
0.432915
0.408014
0.420091
0.409096
0.44265
0.442474
0.44001
0.297143
0.106016
0.301492
0.108955
0.442377
0.442402
0.442637
0.442645
0.442674
0.442678
0.442678
0.442678
0.442678
0.442678
0.442678
0.442678
0.442678
0.442678
0.442678
0.442678
0.442678
0.442678
0.442678
0.442678
0.442678
0.442678
0.442678
0.442678
0.442678
0.442678
0.442678
0.442678
0.442678
0.442678
0.442678
0.442678
0.442678
0.442678
0.442678
0.442678
0.442678
0.442678
0.442678
0.442678
0.442678
0.442678
0.442678
0.442678
0.442678
0.442678
0.442678
0.442678
0.442678
0.442678
0.442678
0.442678
0.442678
0.442678
0.442678
0.442678
0.442678
0.442678
0.442678
0.442678
0.442678
0.442678
0.442678
0.442678
0.442678
0.442678
0.442678
0.442678
0.442638
0.442645
0.442378
0.442403
0.302248
0.109018
0.298031
0.106088
0.299725
0.432953
0.408017
0.438702
0.425219
0.435826
0.390372
0.227795
0.0650776
0.367322
0.384906
0.383792
0.430629
0.442614
0.442073
0.415498
0.380101
0.833732
0.843433
0.884406
0.884734
0.837278
0.703264
0.884407
0.875564
0.701083
0.874874
0.170995
0.810305
0.677054
0.872505
0.678631
0.214347
0.868156
0.416946
0.41905
0.260471
0.88507
0.885037
0.885144
0.885353
0.885211
0.885269
0.885355
0.885355
0.885203
0.882977
0.885355
0.885349
0.882822
0.885349
0.862073
0.885207
0.881996
0.88534
0.879406
0.637936
0.885253
0.872901
0.885341
0.885144
0.885353
0.885144
0.885353
0.885355
0.885355
0.885355
0.885355
0.885355
0.885355
0.885355
0.885355
0.885355
0.885355
0.885355
0.885341
0.885355
0.885354
0.885355
0.88534
0.882395
0.885355
0.885348
0.792654
0.885144
0.885353
0.885144
0.885353
0.885355
0.885355
0.885355
0.885355
0.885355
0.885355
0.885355
0.885355
0.885355
0.885355
0.885355
0.885355
0.885355
0.885355
0.885355
0.885355
0.885355
0.885355
0.885355
0.793142
0.885144
0.885353
0.885144
0.885353
0.885355
0.885355
0.885355
0.885355
0.885355
0.885355
0.885355
0.885355
0.885355
0.885355
0.885355
0.885355
0.885355
0.885355
0.885355
0.885355
0.885355
0.885355
0.885355
0.793142
0.885144
0.885353
0.885144
0.885353
0.885355
0.885355
0.885355
0.885355
0.885355
0.885355
0.885355
0.885355
0.885355
0.885355
0.885355
0.885355
0.885355
0.885355
0.885355
0.885355
0.885355
0.885355
0.885355
0.793142
0.885144
0.885353
0.885144
0.885353
0.885355
0.885355
0.885355
0.885355
0.885355
0.885355
0.885355
0.885355
0.885355
0.885355
0.885355
0.885355
0.885355
0.885355
0.885355
0.885355
0.885355
0.885355
0.885355
0.793142
0.793142
0.885144
0.885353
0.885144
0.885353
0.885355
0.885355
0.885355
0.885355
0.885355
0.885355
0.885355
0.885355
0.885355
0.885355
0.885355
0.885355
0.885355
0.885355
0.885355
0.885355
0.885355
0.885355
0.885355
0.793142
0.793142
0.885144
0.885353
0.885144
0.885353
0.885355
0.885355
0.885355
0.885355
0.885355
0.885355
0.885355
0.885355
0.885355
0.885355
0.885355
0.885355
0.885355
0.885355
0.885355
0.885355
0.885355
0.885355
0.885355
0.793142
0.885144
0.885353
0.885144
0.885353
0.885355
0.885355
0.885355
0.885355
0.885355
0.885355
0.885355
0.885355
0.885355
0.885355
0.885355
0.885355
0.885355
0.885355
0.885355
0.885355
0.885355
0.885355
0.885355
0.885144
0.885353
0.885144
0.885353
0.885355
0.885355
0.885355
0.885355
0.885355
0.885355
0.885355
0.885355
0.885355
0.885355
0.885355
0.885355
0.885355
0.885355
0.885355
0.885355
0.885355
0.885355
0.885355
0.793142
0.885144
0.885353
0.885144
0.885353
0.885355
0.885355
0.885355
0.885355
0.885355
0.885355
0.885355
0.885355
0.885355
0.885355
0.885355
0.885355
0.885355
0.885355
0.885355
0.885355
0.885355
0.885355
0.885355
0.793142
0.885144
0.885353
0.885144
0.885353
0.885355
0.885355
0.885355
0.885355
0.885355
0.885355
0.885355
0.885355
0.885355
0.885355
0.885355
0.885355
0.885355
0.885355
0.885355
0.885355
0.885355
0.885355
0.885355
0.793142
0.885144
0.885353
0.885144
0.885353
0.885355
0.885355
0.885355
0.885355
0.885355
0.885355
0.885355
0.885355
0.885355
0.885355
0.885355
0.885355
0.885355
0.885355
0.885355
0.885355
0.885355
0.885355
0.885355
0.793142
0.885144
0.885353
0.885144
0.885353
0.885355
0.885355
0.885355
0.885355
0.885355
0.885355
0.885355
0.885355
0.885355
0.885355
0.885355
0.885355
0.885355
0.885355
0.885355
0.885355
0.885355
0.885355
0.885355
0.793142
0.793142
0.885144
0.885353
0.885144
0.885353
0.885355
0.885355
0.885355
0.885355
0.885355
0.885355
0.885355
0.885355
0.885355
0.885355
0.885355
0.885354
0.885355
0.885355
0.885355
0.885355
0.885355
0.885348
0.885355
0.793134
0.793068
0.885144
0.885353
0.885136
0.885312
0.885355
0.885355
0.885339
0.885347
0.885355
0.885355
0.885338
0.88491
0.885355
0.884887
0.880099
0.885341
0.879646
0.885355
0.884772
0.885355
0.885282
0.884726
0.872691
0.762559
0.88507
0.885036
0.87743
0.859121
0.885209
0.885268
0.867768
0.871899
0.885202
0.882977
0.868799
0.80111
0.882822
0.796958
0.861991
0.47488
0.882267
0.783476
0.882067
0.842924
0.783703
0.395101
0.712469
0.678634
0.502586
0.509902
0.651141
0.638447
0.546639
0.469157
0.176902
0.184197
0.791329
0.547513
0.710984
0.713672
0.648325
0.550335
0.501707
0.385096
0.485802
0.227679
0.183554
0.09007
0.584499
0.700859
0.64688
0.776856
0.666746
0.780064
0.658831
0.73295
0.442663
0.622249
0.442673
0.520978
0.442678
0.442678
0.498473
0.442678
0.442678
0.442677
0.39486
0.0562275
0.0615687
0.0885891
0.442678
0.442677
0.442678
0.496818
0.442673
0.445977
0.449044
0.487746
0.226503
0.192842
0.275974
0.266896
0.270659
0.50247
0.43526
0.333094
0.196846
0.418898
0.442429
0.519642
0.545249
0.479313
0.0532959
0.401485
0.848916
0.851857
0.851858
0.851858
0.851858
0.851858
0.851858
0.851858
0.851858
0.851858
0.851858
0.851733
0.851074
0.810705
0.82909
0.839943
0.802379
0.722714
0.841552
0.760874
0.843432
0.777419
0.811267
0.768789
0.747891
0.522129
0.696895
0.522494
0.498341
0.647132
0.512474
0.547381
0.20374
0.46931
0.640551
0.653984
0.244819
0.675317
0.673098
0.66427
0.492783
0.441608
0.442487
0.411664
0.829095
0.87743
0.802435
0.859218
0.882924
0.883794
0.877695
0.88305
0.465961
0.418012
0.43211
0.432299
0.438034
0.441079
0.442473
0.220676
0.318166
0.367071
0.348424
0.39899
0.442678
0.442677
0.442678
0.442678
0.442678
0.442678
0.442678
0.442678
0.442678
0.442678
0.442678
0.442678
0.442678
0.442678
0.442678
0.442678
0.442678
0.442678
0.442678
0.442678
0.442678
0.442678
0.442678
0.442678
0.442678
0.442678
0.442678
0.442465
0.414298
0.401091
0.279389
0.6446
0.555754
0.678634
0.778027
0.787749
0.651141
0.821035
0.75722
0.475082
0.177949
0.18541
0.508153
0.491927
0.791839
0.761058
0.84268
0.722162
0.835321
0.812001
0.751829
0.80889
0.826231
0.816062
0.882588
0.884785
0.884841
0.879818
0.885063
0.884165
0.879795
0.875795
0.882132
0.866266
0.869929
0.881005
0.884202
0.884185
0.885151
0.883587
0.885218
0.885048
0.83994
0.884131
0.885042
0.885164
0.884927
0.885355
0.885355
0.885355
0.885354
0.885355
0.885355
0.885354
0.885155
0.885355
0.885346
0.885351
0.885355
0.885355
0.885355
0.885355
0.885355
0.885355
0.885355
0.885355
0.885355
0.885355
0.885322
0.885355
0.885355
0.885355
0.885355
0.885355
0.885355
0.885355
0.885157
0.885355
0.885355
0.885355
0.885355
0.885355
0.885355
0.885355
0.885355
0.885355
0.885355
0.880153
0.885355
0.885355
0.885355
0.885322
0.885355
0.885355
0.885355
0.885355
0.885355
0.885355
0.885355
0.885157
0.885355
0.885355
0.885355
0.885355
0.885355
0.885355
0.885355
0.885355
0.885355
0.885355
0.885355
0.885355
0.885355
0.885355
0.885322
0.885355
0.885355
0.885355
0.885355
0.885355
0.885355
0.885355
0.885157
0.885355
0.885355
0.885355
0.885355
0.885355
0.885355
0.885355
0.885355
0.885355
0.885355
0.880153
0.885355
0.885355
0.885355
0.885322
0.885355
0.885355
0.885355
0.885355
0.885355
0.885355
0.885355
0.885157
0.885355
0.885355
0.885355
0.885355
0.885355
0.885355
0.885355
0.885355
0.885355
0.885355
0.885355
0.885355
0.885355
0.885355
0.885322
0.885355
0.885355
0.885355
0.885355
0.885355
0.885355
0.885355
0.885157
0.885355
0.885355
0.885355
0.885355
0.885355
0.885355
0.885355
0.885355
0.885355
0.885355
0.880153
0.885355
0.885355
0.885355
0.885322
0.885355
0.885355
0.885355
0.885355
0.885355
0.885355
0.885355
0.885157
0.885355
0.885355
0.885355
0.885355
0.885355
0.885355
0.885355
0.885355
0.885355
0.885355
0.885355
0.885355
0.885355
0.885322
0.885355
0.885355
0.885355
0.885355
0.885355
0.885355
0.885355
0.885157
0.885355
0.885355
0.885355
0.885355
0.885355
0.885355
0.885355
0.885355
0.885355
0.885355
0.880153
0.885355
0.885355
0.885355
0.885322
0.885355
0.885355
0.885355
0.885355
0.885355
0.885355
0.885355
0.885157
0.885355
0.885355
0.885355
0.885355
0.885355
0.885355
0.885355
0.885355
0.885355
0.885355
0.885355
0.885355
0.885355
0.885322
0.885355
0.885355
0.885355
0.885355
0.885355
0.885355
0.885355
0.885157
0.885355
0.885355
0.885355
0.885355
0.885355
0.885355
0.885355
0.885355
0.885355
0.885355
0.880153
0.885355
0.885355
0.885355
0.885322
0.885355
0.885355
0.885355
0.885355
0.885355
0.885355
0.885355
0.885157
0.885355
0.885355
0.885355
0.885355
0.885355
0.885355
0.885355
0.885355
0.885355
0.885355
0.885355
0.885355
0.885355
0.885355
0.885322
0.885355
0.885355
0.885355
0.885355
0.885355
0.885355
0.885355
0.885157
0.885355
0.885355
0.885355
0.885355
0.885355
0.885355
0.885355
0.885355
0.885355
0.885355
0.880153
0.885355
0.885355
0.885355
0.885322
0.885355
0.885355
0.885355
0.885355
0.885355
0.885355
0.885355
0.885157
0.885355
0.885355
0.885355
0.885355
0.885355
0.885355
0.885355
0.885355
0.885355
0.885355
0.885355
0.885355
0.885355
0.885355
0.885322
0.885355
0.885355
0.885355
0.885355
0.885355
0.885355
0.885355
0.885157
0.885355
0.885355
0.885355
0.885355
0.885355
0.885355
0.885355
0.885355
0.885355
0.885355
0.880153
0.885355
0.885355
0.885355
0.885322
0.885355
0.885348
0.885348
0.885354
0.885352
0.885334
0.885218
0.885131
0.885298
0.885346
0.885351
0.885257
0.885355
0.885334
0.885353
0.885355
0.885354
0.885351
0.885347
0.885334
0.885274
0.885213
0.882588
0.872548
0.873909
0.879818
0.878088
0.865485
0.810382
0.86015
0.828171
0.866149
0.869825
0.819458
0.884201
0.865762
0.880475
0.883466
0.880683
0.877097
0.768416
0.872201
0.863877
0.841526
0.836882
0.842227
0.86795
0.844127
0.872108
0.880722
0.884715
0.882071
0.884768
0.811784
0.868993
0.748138
0.801122
0.8809
0.882818
0.853415
0.878836
0.696895
0.79696
0.851308
0.874257
0.469506
0.167814
0.690816
0.685721
0.806478
0.685031
0.476082
0.691241
0.784294
0.845435
0.638394
0.780598
0.519213
0.238193
0.840202
0.838884
0.267388
0.721403
0.51624
0.620236
0.842453
0.721162
0.819773
0.828444
0.740171
0.167412
0.584121
0.524279
0.573254
0.871092
0.872328
0.868925
0.819599
0.859684
0.858219
0.885033
0.885136
0.884911
0.885312
0.885143
0.885312
0.88535
0.885345
0.885267
0.88534
0.885275
0.885347
0.885354
0.885355
0.885355
0.885355
0.884833
0.885338
0.883821
0.88491
0.885354
0.885354
0.885293
0.885351
0.882654
0.884887
0.882265
0.885292
0.885349
0.879245
0.884334
0.884192
0.879666
0.884287
0.884646
0.885236
0.862275
0.883503
0.793794
0.774184
0.884864
0.88452
0.843982
0.881078
0.690209
0.475207
0.791743
0.865117
0.884668
0.868406
0.883209
0.880845
0.884852
0.884599
0.885298
0.881668
0.882605
0.881653
0.881347
0.885351
0.885348
0.883663
0.885255
0.884578
0.885312
0.885144
0.885345
0.885353
0.885144
0.885312
0.885353
0.885345
0.885355
0.885355
0.885355
0.885355
0.885355
0.885355
0.885355
0.885355
0.885355
0.885355
0.885355
0.885355
0.885355
0.885355
0.885355
0.885355
0.885355
0.885355
0.885355
0.885355
0.885355
0.885355
0.885354
0.885338
0.885354
0.885355
0.885355
0.885355
0.885355
0.885354
0.885355
0.885355
0.885355
0.885197
0.885354
0.884423
0.884815
0.885355
0.885355
0.885282
0.885354
0.884192
0.885339
0.885226
0.885354
0.885355
0.884591
0.885157
0.884597
0.885355
0.885355
0.885355
0.885355
0.885355
0.885355
0.885355
0.885355
0.885355
0.884953
0.885322
0.884954
0.885312
0.885144
0.885345
0.885353
0.885144
0.885312
0.885353
0.885345
0.885355
0.885355
0.885355
0.885355
0.885355
0.885355
0.885355
0.885355
0.885355
0.885355
0.885355
0.885355
0.885355
0.885355
0.885355
0.885355
0.885355
0.885355
0.885355
0.885355
0.885355
0.885355
0.885355
0.885355
0.885355
0.885355
0.885355
0.885355
0.885355
0.885355
0.885355
0.885355
0.885355
0.885355
0.885355
0.885355
0.885355
0.885355
0.885355
0.885355
0.885355
0.885355
0.885355
0.884598
0.885157
0.884598
0.885355
0.885355
0.885355
0.884806
0.885355
0.885355
0.885355
0.885355
0.885355
0.885355
0.884954
0.885322
0.884954
0.885312
0.885144
0.885345
0.885353
0.885144
0.885312
0.885353
0.885345
0.885355
0.885355
0.885355
0.885355
0.885355
0.885355
0.885355
0.885355
0.885355
0.885355
0.885355
0.885355
0.885355
0.885355
0.885355
0.885355
0.885355
0.885355
0.885355
0.885355
0.885355
0.885355
0.885355
0.885355
0.885355
0.885355
0.885355
0.885355
0.885355
0.885355
0.885355
0.885355
0.885355
0.885355
0.885355
0.885355
0.885355
0.885355
0.885355
0.885355
0.885355
0.885355
0.884598
0.885157
0.884598
0.885355
0.885355
0.885355
0.885351
0.884806
0.885355
0.885355
0.885355
0.885355
0.885355
0.884954
0.885322
0.884954
0.885312
0.885144
0.885345
0.885353
0.885144
0.885312
0.885353
0.885345
0.885355
0.885355
0.885355
0.885355
0.885355
0.885355
0.885355
0.885355
0.885355
0.885355
0.885355
0.885355
0.885355
0.885355
0.885355
0.885355
0.885355
0.885355
0.885355
0.885355
0.885355
0.885355
0.885355
0.885355
0.885355
0.885355
0.885355
0.885355
0.885355
0.885355
0.885355
0.885355
0.885355
0.885355
0.885355
0.885355
0.885355
0.885355
0.885355
0.885355
0.884598
0.885157
0.884598
0.885355
0.885355
0.885355
0.885355
0.884806
0.884806
0.885355
0.885355
0.885355
0.885355
0.885355
0.884954
0.885322
0.884954
0.885312
0.885144
0.885345
0.885353
0.885144
0.885312
0.885353
0.885345
0.885355
0.885355
0.885355
0.885355
0.885355
0.885355
0.885355
0.885355
0.885355
0.885355
0.885355
0.885355
0.885355
0.885355
0.885355
0.885355
0.885355
0.885355
0.885355
0.885355
0.885355
0.885355
0.885355
0.885355
0.885355
0.885355
0.885355
0.885355
0.885355
0.885355
0.885355
0.885355
0.885355
0.885355
0.885355
0.885355
0.885355
0.885355
0.885355
0.885355
0.885355
0.885355
0.884598
0.885157
0.884598
0.885355
0.885355
0.885355
0.884806
0.885351
0.884806
0.885355
0.885355
0.885355
0.885355
0.885355
0.885355
0.884954
0.885322
0.884954
0.885312
0.885144
0.885345
0.885353
0.885144
0.885312
0.885353
0.885345
0.885355
0.885355
0.885355
0.885355
0.885355
0.885355
0.885355
0.885355
0.885355
0.885355
0.885355
0.885355
0.885355
0.885355
0.885355
0.885355
0.885355
0.885355
0.885355
0.885355
0.885355
0.885355
0.885355
0.885355
0.885355
0.885355
0.885355
0.885355
0.885355
0.885355
0.885355
0.885355
0.885355
0.885355
0.885355
0.885355
0.885355
0.885355
0.885355
0.885355
0.885355
0.885355
0.885355
0.885355
0.884598
0.885157
0.884598
0.885355
0.885355
0.885355
0.885355
0.885351
0.884806
0.885351
0.885355
0.885355
0.885355
0.885355
0.885355
0.885355
0.885355
0.885355
0.884954
0.885322
0.884954
0.885312
0.885144
0.885345
0.885353
0.885144
0.885312
0.885353
0.885345
0.885355
0.885355
0.885355
0.885355
0.885355
0.885355
0.885355
0.885355
0.885355
0.885355
0.885355
0.885355
0.885355
0.885355
0.885355
0.885355
0.885355
0.885355
0.885355
0.885355
0.885355
0.885355
0.885355
0.885355
0.885355
0.885355
0.885355
0.885355
0.885355
0.885355
0.885355
0.885355
0.885355
0.885355
0.885355
0.885355
0.885355
0.885355
0.885355
0.885355
0.885355
0.884598
0.885157
0.884598
0.885355
0.885355
0.885355
0.884806
0.885355
0.885355
0.885355
0.885355
0.885355
0.885355
0.884954
0.885322
0.884954
0.885312
0.885144
0.885345
0.885353
0.885144
0.885312
0.885353
0.885345
0.885355
0.885355
0.885355
0.885355
0.885355
0.885355
0.885355
0.885355
0.885355
0.885355
0.885355
0.885355
0.885355
0.885355
0.885355
0.885355
0.885355
0.885355
0.885355
0.885355
0.885355
0.885355
0.885355
0.885355
0.885355
0.885355
0.885355
0.885355
0.885355
0.885355
0.885355
0.885355
0.885355
0.885355
0.885355
0.885355
0.885355
0.885355
0.885355
0.885355
0.885355
0.884598
0.885157
0.884598
0.885355
0.885355
0.885355
0.885351
0.885355
0.885355
0.885355
0.885355
0.885355
0.884954
0.885322
0.884954
0.885312
0.885144
0.885345
0.885353
0.885144
0.885312
0.885353
0.885345
0.885355
0.885355
0.885355
0.885355
0.885355
0.885355
0.885355
0.885355
0.885355
0.885355
0.885355
0.885355
0.885355
0.885355
0.885355
0.885355
0.885355
0.885355
0.885355
0.885355
0.885355
0.885355
0.885355
0.885355
0.885355
0.885355
0.885355
0.885355
0.885355
0.885355
0.885355
0.885355
0.885355
0.885355
0.885355
0.885355
0.885355
0.885355
0.885355
0.885355
0.885355
0.885355
0.885355
0.885355
0.885355
0.885355
0.884598
0.885157
0.884598
0.885355
0.885355
0.885355
0.885355
0.885355
0.885355
0.885355
0.885355
0.885355
0.884954
0.885322
0.884954
0.885312
0.885144
0.885345
0.885353
0.885144
0.885312
0.885353
0.885345
0.885355
0.885355
0.885355
0.885355
0.885355
0.885355
0.885355
0.885355
0.885355
0.885355
0.885355
0.885355
0.885355
0.885355
0.885355
0.885355
0.885355
0.885355
0.885355
0.885355
0.885355
0.885355
0.885355
0.885355
0.885355
0.885355
0.885355
0.885355
0.885355
0.885355
0.885355
0.885355
0.885355
0.885355
0.885355
0.885355
0.885355
0.885355
0.885355
0.885355
0.885355
0.885355
0.885355
0.884598
0.885157
0.884598
0.885355
0.885355
0.885355
0.884806
0.885355
0.885355
0.885355
0.885355
0.885355
0.885355
0.884954
0.885322
0.884954
0.885312
0.885144
0.885345
0.885353
0.885144
0.885312
0.885353
0.885345
0.885355
0.885355
0.885355
0.885355
0.885355
0.885355
0.885355
0.885355
0.885355
0.885355
0.885355
0.885355
0.885355
0.885355
0.885355
0.885355
0.885355
0.885355
0.885355
0.885355
0.885355
0.885355
0.885355
0.885355
0.885355
0.885355
0.885355
0.885355
0.885355
0.885355
0.885355
0.885355
0.885355
0.885355
0.885355
0.885355
0.885355
0.885355
0.885355
0.885355
0.885355
0.885355
0.884598
0.885157
0.884598
0.885355
0.885355
0.885355
0.885351
0.884806
0.885355
0.885355
0.885355
0.885355
0.885355
0.884954
0.885322
0.884954
0.885312
0.885144
0.885345
0.885353
0.885144
0.885312
0.885353
0.885345
0.885355
0.885355
0.885355
0.885355
0.885355
0.885355
0.885355
0.885355
0.885355
0.885355
0.885355
0.885355
0.885355
0.885355
0.885355
0.885355
0.885355
0.885355
0.885355
0.885355
0.885355
0.885355
0.885355
0.885355
0.885355
0.885355
0.885355
0.885355
0.885355
0.885355
0.885355
0.885355
0.885355
0.885355
0.885355
0.885355
0.885355
0.885355
0.885355
0.885355
0.884598
0.885157
0.884598
0.885355
0.885355
0.885355
0.885355
0.884806
0.884806
0.885355
0.885355
0.885355
0.885355
0.885355
0.884954
0.885322
0.884954
0.885312
0.885144
0.885345
0.885353
0.885144
0.885312
0.885353
0.885345
0.885355
0.885355
0.885355
0.885355
0.885355
0.885355
0.885355
0.885355
0.885355
0.885355
0.885355
0.885355
0.885355
0.885355
0.885355
0.885355
0.885355
0.885355
0.885355
0.885355
0.885355
0.885355
0.885355
0.885355
0.885355
0.885355
0.885355
0.885355
0.885355
0.885355
0.885355
0.885355
0.885355
0.885355
0.885355
0.885355
0.885355
0.885355
0.885355
0.885355
0.885355
0.885355
0.884598
0.885157
0.884598
0.885355
0.885355
0.885355
0.884806
0.885351
0.884806
0.885355
0.885355
0.885355
0.885355
0.885355
0.885355
0.884954
0.885322
0.884954
0.885312
0.885144
0.885345
0.885353
0.885144
0.885312
0.885353
0.885345
0.885355
0.885355
0.885355
0.885355
0.885355
0.885355
0.885355
0.885355
0.885355
0.885355
0.885355
0.885355
0.885355
0.885355
0.885355
0.885355
0.885355
0.885355
0.885355
0.885355
0.885355
0.885355
0.885355
0.885355
0.885355
0.885355
0.885355
0.885355
0.885355
0.885355
0.885355
0.885355
0.885355
0.885355
0.885355
0.885355
0.885355
0.885354
0.885355
0.885354
0.885339
0.885355
0.885355
0.885355
0.884598
0.885157
0.884598
0.885355
0.885355
0.885355
0.885355
0.885351
0.884806
0.885351
0.885355
0.885355
0.885355
0.885355
0.885355
0.885355
0.885355
0.885355
0.884954
0.885322
0.884953
0.885312
0.885144
0.885345
0.885353
0.885143
0.885274
0.88535
0.885284
0.885355
0.885355
0.885355
0.885355
0.885354
0.885347
0.885355
0.885347
0.885355
0.885355
0.885355
0.885349
0.885354
0.885274
0.885293
0.885076
0.885355
0.885349
0.885292
0.884853
0.885191
0.885338
0.885185
0.884334
0.884192
0.885206
0.884283
0.885347
0.885274
0.885353
0.885347
0.885338
0.884812
0.885267
0.884
0.882364
0.880645
0.88428
0.879818
0.885355
0.884728
0.884519
0.88492
0.883968
0.884848
0.882121
0.884951
0.884783
0.885355
0.885355
0.885355
0.884832
0.885039
0.884964
0.884477
0.884619
0.882979
0.885033
0.884663
0.884911
0.883575
0.864333
0.882924
0.854354
0.877671
0.885266
0.884397
0.885273
0.884724
0.871459
0.880678
0.872252
0.88202
0.884832
0.884398
0.88382
0.875563
0.855752
0.880852
0.824862
0.853412
0.882654
0.874873
0.882265
0.793427
0.851308
0.807075
0.690813
0.685692
0.810051
0.690587
0.872837
0.84545
0.879373
0.872282
0.868114
0.770185
0.757411
0.844602
0.66213
0.626511
0.703855
0.815214
0.8794
0.881989
0.772965
0.834673
0.814578
0.751767
0.506128
0.720175
0.705496
0.739533
0.828367
0.724889
0.88335
0.883053
0.882369
0.790342
0.788011
0.816028
0.755782
0.711406
0.442562
0.442591
0.442416
0.252879
0.339457
0.40163
0.334529
0.354292
0.408411
0.325412
0.216651
0.437081
0.247113
0.101
0.262764
0.441328
0.442338
0.442499
0.442329
0.442661
0.4426
0.442242
0.436704
0.442603
0.319977
0.360634
0.395354
0.259284
0.09956
0.262986
0.439432
0.441959
0.442425
0.442657
0.442607
0.442677
0.442677
0.442677
0.442677
0.346054
0.29413
0.406033
0.380469
0.315014
0.365007
0.442677
0.442677
0.442677
0.442677
0.435669
0.239864
0.442516
0.438967
0.44225
0.440554
0.442587
0.381446
0.442172
0.44253
0.442638
0.442675
0.442677
0.442677
0.442678
0.442678
0.442678
0.442678
0.442678
0.442678
0.442677
0.442677
0.403219
0.418323
0.433121
0.239191
0.112011
0.295288
0.346934
0.265012
0.105991
0.275679
0.100024
0.154572
0.442676
0.442678
0.442678
0.442677
0.442678
0.442677
0.442677
0.441126
0.434085
0.350359
0.368773
0.396506
0.417291
0.433706
0.442664
0.442537
0.441204
0.437738
0.440407
0.40206
0.351633
0.420495
0.419733
0.423228
0.404454
0.428021
0.320679
0.431665
0.363799
0.211011
0.381568
0.304622
0.44239
0.442187
0.432967
0.432985
0.440254
0.381568
0.32988
0.405739
0.423222
0.375958
0.074372
0.0259909
0.442192
0.440907
0.442243
0.442476
0.442577
0.442675
0.442677
0.442645
0.442675
0.442677
0.442677
0.442677
0.442677
0.442678
0.442678
0.442678
0.442677
0.442676
0.442678
0.442677
0.379166
0.417965
0.240688
0.307854
0.362691
0.285845
0.092967
0.0616236
0.058589
0.442676
0.442677
0.442677
0.442677
0.442678
0.442678
0.442677
0.442676
0.442675
0.442677
0.417631
0.438162
0.431764
0.382072
0.337979
0.336956
0.226413
0.227631
0.439241
0.442219
0.423666
0.404769
0.436482
0.441912
0.442676
0.442644
0.442677
0.442677
0.442675
0.441916
0.441934
0.439306
0.436913
0.441965
0.405622
0.340887
0.419398
0.423284
0.40415
0.217237
0.236576
0.0883114
0.410425
0.349483
0.352807
0.243747
0.361848
0.354726
0.243724
0.316534
0.210599
0.442514
0.441874
0.442476
0.433352
0.440409
0.441222
0.442387
0.436655
0.433347
0.44039
0.442616
0.442642
0.346562
0.308851
0.239616
0.432291
0.398413
0.210547
0.132735
0.32017
0.416781
0.433222
0.316958
0.335005
0.310875
0.291099
0.158653
0.345623
0.12353
0.345624
0.362423
0.401809
0.248717
0.0800085
0.0242387
0.18722
0.144722
0.442674
0.442677
0.442677
0.442677
0.442678
0.442678
0.442678
0.442678
0.442678
0.442678
0.0873864
0.202804
0.372055
0.163277
0.0209265
0.0341956
0.442678
0.442678
0.442678
0.442678
0.420093
0.0307487
0.077821
0.202616
0.442609
0.441711
0.231551
0.0794286
0.0828085
0.0761775
0.41624
0.339325
0.426437
0.139198
0.442612
0.442651
0.442668
0.147878
0.0796158
0.0796175
0.184416
0.804254
0.856466
0.881449
0.881544
0.881544
0.881544
0.881544
0.881544
0.881544
0.881544
0.881544
0.881544
0.881544
0.881544
0.881544
0.881544
0.881544
0.881544
0.856458
0.804587
0.875184
0.881544
0.881544
0.881544
0.881544
0.881544
0.881544
0.881544
0.689049
0.172079
0.560668
0.631123
0.698435
0.208595
0.525158
0.862635
0.879476
0.882083