/*--------------------------------*- C++ -*----------------------------------*\
  =========                 |
  \\      /  F ield         | OpenFOAM: The Open Source CFD Toolbox
   \\    /   O peration     | Website:  https://openfoam.org
    \\  /    A nd           | Version:  10
     \\/     M anipulation  |
\*---------------------------------------------------------------------------*/
FoamFile
{
    format      ascii;
    class       volScalarField;
    location    "0";
    object      thicknessFraction;
}
// * * * * * * * * * * * * * * * * * * * * * * * * * * * * * * * * * * * * * //

dimensions      [0 0 0 0 0 0 0];

internalField   uniform 0;

boundaryField
{
    front
    {
        type            cyclic;
    }
    Back
    {
        type            cyclic;
    }
    inlet
    {
        type            fixedValue;
        value           uniform 0;
    }
    outlet
    {
        type            fixedValue;
        value           uniform 0;
    }
    upperPatch
    {
        type            fixedValue;
        value           uniform 0;
    }
    ground
    {
        type            fixedValue;
        value           nonuniform List<scalar> 
8153
(
0
0
0
0
0
0
0
0
0
0
0
0
0
0
0
0
0
0
0
0
0
0
0
0
0
0
0
0
0
0
0
0
0
0
0
0
0
0
0
0
0
0
0
0
0
0
0
0
0
0
0
0
0
0
0
0
0
0
0
0
0
0
0
0
0
0
0
0
0
0
0
0
0
0
0
0
0
0
0
0
0
0
0
0
0
0
0
0
0
0
0
0
0
0
0
0
0
0
0
0
0.998738
0.990457
0.999755
0.743013
0.999554
0.748725
0.843654
0.747702
0.865381
0.148503
0.809994
0.996505
0.998094
0.993831
0.99897
0.887119
0.997931
1
1
0.999998
1
0.993108
1
1
1
1
1
0.994124
1
1
1
1
1
0.994124
1
1
1
1
1
0.994124
1
1
1
1
1
0.994124
1
1
1
1
1
0.994124
1
1
1
1
1
0.994124
1
1
1
1
1
0.994124
1
1
1
1
1
0.994124
1
1
1
1
1
0.994124
1
1
1
1
1
0.994124
1
1
1
1
1
0.994124
1
1
1
1
1
0.994124
1
1
1
1
1
0.994125
1
1
1
0.999998
1
0.993943
0.999998
0.996505
0.998094
0.993832
0.998919
0.944354
0.99342
0.748725
0.843654
0.747384
0.861702
0.179708
0.693055
0.872619
0.948713
0.817159
0.861106
0.880035
0.998523
0.870141
0.842521
0.999747
1
0.843078
1
1
0.845188
1
0.826485
0.319951
0.996095
0.990527
0.999897
0.994102
0.76249
0.992119
0.977526
0.888317
0.782172
0.210063
0.983307
0.994681
0.999888
0.996773
0.880524
0.906862
0.22086
0.976113
0.918426
0.881961
0.885581
0.941035
0.95189
0.784101
0.796198
0.944996
0.794298
0.793728
0.998546
0.791863
0.99975
1
1
0.192304
0.76308
1
0.768085
0.265621
1
0.998967
0.888689
0.881981
0.895568
0.801023
0.813549
0.809659
0.999873
0.999999
0.999966
1
1
1
1
0.999996
1
0.999999
0.986421
0.946102
0.209853
0.274648
0.571866
0.999992
0.999999
0.999999
1
1
1
0.998562
0.94695
0.999804
0.991342
0.764948
0.965653
0.988019
0.928701
0.840149
0.977605
0.851053
0.978684
0.947341
0.957676
0.943712
0.511068
0.0642651
0.340568
0.300042
0.685426
0.826184
0.89286
0.899514
0.901383
0.901865
0.901873
0.901874
0.901874
0.901874
0.901874
0.901874
0.901874
0.901874
0.901874
0.901874
0.901874
0.901874
0.901874
0.901874
0.901874
0.901874
0.901874
0.901874
0.901874
0.901874
0.901874
0.901874
0.901874
0.901874
0.901874
0.901874
0.901874
0.901874
0.901874
0.901874
0.901874
0.901874
0.901874
0.901874
0.901874
0.901873
0.901865
0.901797
0.899514
0.901383
0.89286
0.685424
0.300044
0.0642653
0.340568
0.943711
0.511066
0.996535
0.999478
0.998786
0.70412
0.996
0.776172
0.743011
0.77617
0.874143
0.967822
0.947478
0.976115
0.91877
0.999218
0.997994
0.911471
0.859349
0.997571
0.999341
0.999954
0.999829
1
1
1
1
0.9612
0.815241
0.924175
0.836648
0.894591
1
1
0.999999
1
0.994877
0.983104
0.988772
0.999555
0.996832
0.816479
0.468486
0.996409
0.737819
0.290478
0.881413
0.725992
0.948376
0.885326
0.982854
1
1
1
1
1
1
1
1
1
1
1
1
1
1
1
1
1
1
1
1
1
1
1
1
1
1
1
1
1
1
1
1
1
1
1
1
1
1
1
1
1
1
1
1
1
1
1
1
1
1
1
1
1
1
1
1
1
1
1
1
1
1
1
1
1
1
1
0.948815
0.885365
0.88245
0.72609
0.79044
0.740773
0.29074
0.818443
0.468666
0.895907
0.999555
0.996832
0.970985
0.992782
0.944348
0.973485
0.970171
0.993699
0.996556
0.995886
0.999158
0.997398
0.989626
0.955585
0.955178
0.910939
0.806588
0.477024
0.681051
0.840911
0.846595
0.848412
0.848417
0.848417
0.848417
0.848417
0.848417
0.848417
0.848417
0.848417
0.848417
0.848417
0.848417
0.848417
0.848417
0.848417
0.848417
0.848417
0.848417
0.848417
0.848417
0.848417
0.848417
0.848417
0.848417
0.848417
0.848417
0.848163
0.847078
0.793744
0.700597
0.896491
0.911459
0.752531
0.794313
0.726982
0.795986
0.749028
0.776722
0.740384
0.877586
0.999919
0.999999
0.999979
1
1
1
1
0.999996
1
1
0.972917
0.840147
0.105846
0.253024
0.0473143
0.823994
0.219185
0.337626
0.999992
1
0.999999
1
1
1
0.999989
0.99939
0.997805
0.999947
0.999929
0.995717
0.984558
0.90503
0.981883
0.866999
0.194683
0.362288
0.929925
0.159638
0.931046
0.195837
0.603768
0.877197
0.172082
0.611328
0.764957
0.808698
0.682427
0.984095
0.996333
0.999766
0.99936
0.999997
0.945952
0.860954
0.730229
0.272047
0.998386
0.998889
0.999529
0.995781
0.999994
1
1
1
0.999999
0.999997
0.978824
0.990673
0.274729
0.693782
0.879024
0.999995
1
0.999999
0.993655
0.998902
0.932409
0.914173
0.98215
0.993996
0.964166
0.999919
0.999057
0.999994
0.970217
0.983127
0.970341
0.978231
0.980869
0.982293
0.738334
0.738331
0.826786
0.982863
0.950588
0.880373
0.954685
0.931612
0.818417
0.984523
0.881847
0.991005
0.96056
0.996479
0.977948
0.921697
0.948976
0.924141
0.999937
0.99954
0.993975
0.67124
0.239488
0.681065
0.246128
0.999322
0.999379
0.99991
0.999927
0.999992
1
1
1
1
1
1
1
1
1
1
1
1
1
1
1
1
1
1
1
1
1
1
1
1
1
1
1
1
1
1
1
1
1
1
1
1
1
1
1
1
1
1
1
1
1
1
1
1
1
1
1
1
1
1
1
1
1
1
1
1
1
1
1
0.99991
0.999927
0.999324
0.999379
0.682772
0.246269
0.673246
0.239652
0.677073
0.978033
0.921702
0.991019
0.960561
0.984523
0.881844
0.514585
0.147009
0.829772
0.869496
0.866978
0.972782
0.999857
0.998635
0.938602
0.858642
0.941693
0.952649
0.998928
0.999299
0.945697
0.79433
0.99893
0.988941
0.791866
0.988161
0.193137
0.915231
0.764726
0.985486
0.766507
0.242103
0.980574
0.470937
0.473313
0.2942
0.999678
0.999641
0.999761
0.999998
0.999837
0.999903
1
1
0.999828
0.997314
1
0.999993
0.997139
0.999993
0.973703
0.999832
0.996206
0.999983
0.99328
0.720543
0.999885
0.985933
0.999984
0.999761
0.999998
0.999761
0.999998
1
1
1
1
1
1
1
1
1
1
1
0.999984
1
0.999999
1
0.999983
0.996657
1
0.999992
0.895295
0.999761
0.999998
0.999761
0.999998
1
1
1
1
1
1
1
1
1
1
1
1
1
1
1
1
1
1
1
0.895846
0.999761
0.999998
0.999761
0.999998
1
1
1
1
1
1
1
1
1
1
1
1
1
1
1
1
1
1
1
0.895846
0.999761
0.999998
0.999761
0.999998
1
1
1
1
1
1
1
1
1
1
1
1
1
1
1
1
1
1
1
0.895846
0.999761
0.999998
0.999761
0.999998
1
1
1
1
1
1
1
1
1
1
1
1
1
1
1
1
1
1
1
0.895846
0.895846
0.999761
0.999998
0.999761
0.999998
1
1
1
1
1
1
1
1
1
1
1
1
1
1
1
1
1
1
1
0.895846
0.895846
0.999761
0.999998
0.999761
0.999998
1
1
1
1
1
1
1
1
1
1
1
1
1
1
1
1
1
1
1
0.895846
0.999761
0.999998
0.999761
0.999998
1
1
1
1
1
1
1
1
1
1
1
1
1
1
1
1
1
1
1
0.999761
0.999998
0.999761
0.999998
1
1
1
1
1
1
1
1
1
1
1
1
1
1
1
1
1
1
1
0.895846
0.999761
0.999998
0.999761
0.999998
1
1
1
1
1
1
1
1
1
1
1
1
1
1
1
1
1
1
1
0.895846
0.999761
0.999998
0.999761
0.999998
1
1
1
1
1
1
1
1
1
1
1
1
1
1
1
1
1
1
1
0.895846
0.999761
0.999998
0.999761
0.999998
1
1
1
1
1
1
1
1
1
1
1
1
1
1
1
1
1
1
1
0.895846
0.999761
0.999998
0.999761
0.999998
1
1
1
1
1
1
1
1
1
1
1
1
1
1
1
1
1
1
1
0.895846
0.895846
0.999761
0.999998
0.999761
0.999998
1
1
1
1
1
1
1
1
1
1
1
0.999999
1
1
1
1
1
0.999992
1
0.895837
0.895763
0.999761
0.999998
0.999752
0.999951
1
1
0.999982
0.999991
1
1
0.99998
0.999497
1
0.999472
0.994063
0.999984
0.993551
0.999999
0.999341
0.999999
0.999918
0.999289
0.985697
0.861303
0.999678
0.99964
0.991049
0.970369
0.999835
0.999901
0.980136
0.984801
0.999827
0.997314
0.9813
0.904846
0.997139
0.900157
0.97361
0.536372
0.996512
0.884928
0.996286
0.952075
0.885185
0.446263
0.804727
0.76651
0.810952
0.822756
0.735457
0.72112
0.705627
0.794862
0.19981
0.208049
0.893799
0.773014
0.803049
0.806085
0.732277
0.776998
0.809533
0.434962
0.627095
0.257161
0.27643
0.1744
0.754498
0.791613
0.730644
0.877452
0.753083
0.881075
0.744144
0.82786
0.999967
0.803227
0.999991
0.840628
1
1
0.844531
1
1
1
0.891981
0.105847
0.139082
0.200121
1
1
1
0.801645
0.999989
0.71961
0.760786
0.787006
0.511665
0.373393
0.62342
0.602913
0.611413
0.810765
0.983244
0.429974
0.254098
0.946283
0.999438
0.838473
0.821138
0.842146
0.0687968
0.453474
0.958843
0.962165
0.962165
0.962165
0.962165
0.962165
0.962165
0.962165
0.962165
0.962165
0.962165
0.962024
0.96128
0.915684
0.936449
0.948708
0.90628
0.816299
0.950524
0.8594
0.952648
0.878088
0.916318
0.86834
0.844736
0.842485
0.787136
0.843075
0.844306
0.730929
0.826906
0.618262
0.328746
0.757259
0.723496
0.738669
0.39503
0.762764
0.760258
0.750286
0.83489
0.997585
0.99957
0.929942
0.936455
0.991049
0.906342
0.970478
0.997254
0.998237
0.991348
0.997396
0.877164
0.94428
0.976128
0.976556
0.98951
0.996389
0.999539
0.498503
0.718731
0.829207
0.787083
0.90131
1
1
1
1
1
1
1
1
1
1
1
1
1
1
1
1
1
1
1
1
1
1
1
1
1
1
1
0.999519
0.935891
0.906057
0.315567
0.728069
0.627719
0.76651
0.878774
0.889755
0.735457
0.927351
0.855272
0.5366
0.200991
0.209419
0.573954
0.555626
0.894375
0.859608
0.951799
0.815675
0.943488
0.917148
0.849184
0.913633
0.93322
0.921734
0.996875
0.999356
0.999419
0.993745
0.99967
0.998656
0.99372
0.989202
0.99636
0.978439
0.982576
0.995087
0.998697
0.998679
0.999769
0.998003
0.999845
0.999653
0.948704
0.998617
0.999646
0.999784
0.999516
1
1
1
0.999998
1
1
0.999999
0.999774
1
0.99999
0.999995
0.999999
1
1
1
1
1
1
1
1
1
0.999963
1
1
1
1
1
1
1
0.999776
1
1
1
1
1
1
1
1
1
1
0.994125
1
1
1
0.999963
1
1
1
1
1
1
1
0.999776
1
1
1
1
1
1
1
1
1
1
1
1
1
1
0.999963
1
1
1
1
1
1
1
0.999776
1
1
1
1
1
1
1
1
1
1
0.994124
1
1
1
0.999963
1
1
1
1
1
1
1
0.999776
1
1
1
1
1
1
1
1
1
1
1
1
1
1
0.999963
1
1
1
1
1
1
1
0.999776
1
1
1
1
1
1
1
1
1
1
0.994124
1
1
1
0.999963
1
1
1
1
1
1
1
0.999776
1
1
1
1
1
1
1
1
1
1
1
1
1
0.999963
1
1
1
1
1
1
1
0.999776
1
1
1
1
1
1
1
1
1
1
0.994124
1
1
1
0.999963
1
1
1
1
1
1
1
0.999776
1
1
1
1
1
1
1
1
1
1
1
1
1
0.999963
1
1
1
1
1
1
1
0.999776
1
1
1
1
1
1
1
1
1
1
0.994124
1
1
1
0.999963
1
1
1
1
1
1
1
0.999776
1
1
1
1
1
1
1
1
1
1
1
1
1
1
0.999963
1
1
1
1
1
1
1
0.999776
1
1
1
1
1
1
1
1
1
1
0.994124
1
1
1
0.999963
1
1
1
1
1
1
1
0.999776
1
1
1
1
1
1
1
1
1
1
1
1
1
1
0.999963
1
1
1
1
1
1
1
0.999776
1
1
1
1
1
1
1
1
1
1
0.994124
1
1
1
0.999963
1
0.999992
0.999992
0.999998
0.999997
0.999976
0.999845
0.999747
0.999936
0.99999
0.999995
0.99989
1
0.999977
0.999998
1
0.999999
0.999996
0.999991
0.999977
0.999909
0.99984
0.996875
0.985534
0.987072
0.993745
0.991792
0.977557
0.915319
0.971531
0.935412
0.978307
0.982459
0.92557
0.998696
0.97787
0.994488
0.997867
0.994723
0.990672
0.867919
0.985143
0.97574
0.950496
0.94525
0.951287
0.980341
0.953433
0.985038
0.994767
0.999277
0.996291
0.999337
0.916903
0.981519
0.845015
0.90486
0.994968
0.997135
0.963924
0.992637
0.787136
0.900158
0.961544
0.987465
0.530303
0.189544
0.78027
0.774515
0.91091
0.773736
0.537731
0.78075
0.885852
0.954911
0.72106
0.881677
0.586446
0.269037
0.949001
0.947511
0.302012
0.814818
0.583088
0.700551
0.951543
0.814546
0.925926
0.935719
0.836016
0.18909
0.659759
0.592168
0.647485
0.98389
0.985286
0.981442
0.92573
0.971005
0.96935
0.999636
0.999752
0.999499
0.999951
0.999761
0.999951
0.999994
0.999988
0.999901
0.999982
0.999909
0.999991
0.999999
1
0.999999
1
0.99941
0.999981
0.998267
0.999497
0.999999
0.999999
0.99993
0.999996
0.996949
0.999472
0.99651
0.999928
0.999993
0.993099
0.998847
0.998687
0.993574
0.998794
0.9992
0.999866
0.973932
0.997908
0.896582
0.874434
0.999446
0.999057
0.953269
0.995169
0.779584
0.536742
0.894266
0.977141
0.999224
0.980856
0.997576
0.994906
0.999432
0.999146
0.999936
0.995836
0.996894
0.995818
0.995473
0.999996
0.999992
0.998088
0.999887
0.999122
0.999951
0.999761
0.999989
0.999998
0.999761
0.999951
0.999998
0.999989
1
1
1
1
1
1
1
1
1
1
1
1
1
1
1
1
1
1
0.999999
1
1
1
0.999999
0.999981
0.999999
1
1
1
1
0.999999
1
1
1
0.999821
0.999998
0.998947
0.99939
1
1
0.999918
0.999999
0.998687
0.999981
0.999855
0.999999
1
0.999137
0.999776
0.999144
1
1
1
1
1
1
1
1
1
0.999545
0.999963
0.999547
0.999951
0.999761
0.999989
0.999998
0.999761
0.999951
0.999998
0.999989
1
1
1
1
1
1
1
1
1
1
1
1
1
1
1
1
1
1
1
1
1
1
1
1
1
1
1
1
1
1
1
1
1
1
1
1
1
1
1
1
1
1
1
0.999145
0.999776
0.999145
1
1
1
0.99938
1
1
1
1
1
1
0.999547
0.999963
0.999547
0.999951
0.999761
0.999989
0.999998
0.999761
0.999951
0.999998
0.999989
1
1
1
1
1
1
1
1
1
1
1
1
1
1
1
1
1
1
1
1
1
1
1
1
1
1
1
1
1
1
1
1
1
1
1
1
1
1
1
1
1
1
0.999145
0.999776
0.999145
1
1
1
0.999995
0.99938
1
1
1
1
1
0.999547
0.999963
0.999547
0.999951
0.999761
0.999989
0.999998
0.999761
0.999951
0.999998
0.999989
1
1
1
1
1
1
1
1
1
1
1
1
1
1
1
1
1
1
1
1
1
1
1
1
1
1
1
1
1
1
1
1
1
1
1
1
1
1
1
1
0.999145
0.999776
0.999145
1
1
1
1
0.99938
0.99938
1
1
1
1
1
0.999547
0.999963
0.999547
0.999951
0.999761
0.999989
0.999998
0.999761
0.999951
0.999998
0.999989
1
1
1
1
1
1
1
1
1
1
1
1
1
1
1
1
1
1
1
1
1
1
1
1
1
1
1
1
1
1
1
1
1
1
1
1
1
1
1
1
1
1
0.999145
0.999776
0.999145
1
1
1
0.99938
0.999995
0.99938
1
1
1
1
1
1
0.999547
0.999963
0.999547
0.999951
0.999761
0.999989
0.999998
0.999761
0.999951
0.999998
0.999989
1
1
1
1
1
1
1
1
1
1
1
1
1
1
1
1
1
1
1
1
1
1
1
1
1
1
1
1
1
1
1
1
1
1
1
1
1
1
1
1
1
1
1
1
0.999145
0.999776
0.999145
1
1
1
1
0.999995
0.99938
0.999995
1
1
1
1
1
1
1
1
0.999547
0.999963
0.999547
0.999951
0.999761
0.999989
0.999998
0.999761
0.999951
0.999998
0.999989
1
1
1
1
1
1
1
1
1
1
1
1
1
1
1
1
1
1
1
1
1
1
1
1
1
1
1
1
1
1
1
1
1
1
1
1
1
1
1
1
1
0.999145
0.999776
0.999145
1
1
1
0.99938
1
1
1
1
1
1
0.999547
0.999963
0.999547
0.999951
0.999761
0.999989
0.999998
0.999761
0.999951
0.999998
0.999989
1
1
1
1
1
1
1
1
1
1
1
1
1
1
1
1
1
1
1
1
1
1
1
1
1
1
1
1
1
1
1
1
1
1
1
1
1
1
1
1
1
0.999145
0.999776
0.999145
1
1
1
0.999995
1
1
1
1
1
0.999547
0.999963
0.999547
0.999951
0.999761
0.999989
0.999998
0.999761
0.999951
0.999998
0.999989
1
1
1
1
1
1
1
1
1
1
1
1
1
1
1
1
1
1
1
1
1
1
1
1
1
1
1
1
1
1
1
1
1
1
1
1
1
1
1
1
1
1
1
1
1
1
0.999145
0.999776
0.999145
1
1
1
1
1
1
1
1
1
0.999547
0.999963
0.999547
0.999951
0.999761
0.999989
0.999998
0.999761
0.999951
0.999998
0.999989
1
1
1
1
1
1
1
1
1
1
1
1
1
1
1
1
1
1
1
1
1
1
1
1
1
1
1
1
1
1
1
1
1
1
1
1
1
1
1
1
1
1
1
0.999145
0.999776
0.999145
1
1
1
0.99938
1
1
1
1
1
1
0.999547
0.999963
0.999547
0.999951
0.999761
0.999989
0.999998
0.999761
0.999951
0.999998
0.999989
1
1
1
1
1
1
1
1
1
1
1
1
1
1
1
1
1
1
1
1
1
1
1
1
1
1
1
1
1
1
1
1
1
1
1
1
1
1
1
1
1
1
0.999145
0.999776
0.999145
1
1
1
0.999995
0.99938
1
1
1
1
1
0.999547
0.999963
0.999547
0.999951
0.999761
0.999989
0.999998
0.999761
0.999951
0.999998
0.999989
1
1
1
1
1
1
1
1
1
1
1
1
1
1
1
1
1
1
1
1
1
1
1
1
1
1
1
1
1
1
1
1
1
1
1
1
1
1
1
1
0.999145
0.999776
0.999145
1
1
1
1
0.99938
0.99938
1
1
1
1
1
0.999547
0.999963
0.999547
0.999951
0.999761
0.999989
0.999998
0.999761
0.999951
0.999998
0.999989
1
1
1
1
1
1
1
1
1
1
1
1
1
1
1
1
1
1
1
1
1
1
1
1
1
1
1
1
1
1
1
1
1
1
1
1
1
1
1
1
1
1
0.999145
0.999776
0.999145
1
1
1
0.99938
0.999995
0.99938
1
1
1
1
1
1
0.999547
0.999963
0.999547
0.999951
0.999761
0.999989
0.999998
0.999761
0.999951
0.999998
0.999989
1
1
1
1
1
1
1
1
1
1
1
1
1
1
1
1
1
1
1
1
1
1
1
1
1
1
1
1
1
1
1
1
1
1
1
1
1
0.999999
1
0.999999
0.999982
1
1
1
0.999145
0.999776
0.999145
1
1
1
1
0.999995
0.99938
0.999995
1
1
1
1
1
1
1
1
0.999547
0.999963
0.999545
0.999951
0.999761
0.999989
0.999998
0.999761
0.999908
0.999994
0.999919
1
1
1
1
0.999999
0.99999
0.999999
0.999991
1
1
1
0.999993
0.999999
0.999909
0.99993
0.999685
1
0.999993
0.999928
0.999433
0.999815
0.999981
0.999808
0.998847
0.998687
0.999832
0.998789
0.999991
0.999908
0.999998
0.999991
0.999981
0.999386
0.999901
0.99847
0.996621
0.99468
0.998786
0.993746
0.999999
0.999291
0.999056
0.999508
0.998433
0.999428
0.996347
0.999544
0.999353
1
1
1
0.999409
0.999643
0.999559
0.999008
0.999169
0.997316
0.999636
0.999218
0.999499
0.997989
0.976256
0.997254
0.964984
0.991321
0.999899
0.998918
0.999908
0.999288
0.984304
0.994717
0.9852
0.996233
0.999409
0.99892
0.998266
0.98894
0.966564
0.994914
0.931674
0.96392
0.996949
0.988161
0.99651
0.896168
0.961544
0.911584
0.780266
0.774482
0.914945
0.780011
0.985861
0.954928
0.993243
0.985234
0.980526
0.869917
0.855488
0.953969
0.747869
0.707638
0.794997
0.920776
0.993274
0.996198
0.873057
0.942755
0.920058
0.849114
0.571666
0.81343
0.796851
0.835296
0.935633
0.818756
0.997736
0.9974
0.996628
0.892683
0.890051
0.921696
0.853649
0.803527
0.999739
0.999805
0.99941
0.571248
0.766828
0.907275
0.755694
0.80034
0.922593
0.735099
0.489411
0.987357
0.558222
0.228156
0.593578
0.996952
0.999234
0.999598
0.999214
0.999962
0.999826
0.999017
0.986506
0.999832
0.722822
0.814666
0.893098
0.585717
0.224904
0.594081
0.992668
0.998376
0.99943
0.999955
0.999841
1
1
1
1
0.78173
0.664433
0.917221
0.859472
0.71161
0.824543
1
1
0.999999
1
0.984169
0.541847
0.999635
0.991618
0.999035
0.995204
0.999796
0.861678
0.998857
0.999666
0.999912
0.999994
1
0.999999
1
1
1
1
1
1
0.999999
1
0.910863
0.944983
0.978413
0.540328
0.25303
0.667051
0.783717
0.598658
0.239433
0.622754
0.225951
0.349174
0.999997
1
1
1
1
1
1
0.996496
0.98059
0.791453
0.833051
0.8957
0.942653
0.979734
0.999971
0.999683
0.996671
0.988841
0.994872
0.908246
0.794331
0.949891
0.948168
0.956065
0.913654
0.96689
0.724407
0.975123
0.821815
0.47667
0.861954
0.688136
0.99935
0.998891
0.978064
0.978104
0.994526
0.861954
0.745193
0.916557
0.956049
0.849282
0.168005
0.0587129
0.998903
0.995999
0.999019
0.999544
0.999772
0.999994
1
0.999927
0.999995
1
1
1
1
1
1
1
0.999999
0.999997
1
0.999999
0.856529
0.944176
0.54371
0.695437
0.819313
0.645718
0.210011
0.139206
0.132352
0.999997
0.999999
1
0.999999
1
1
1
0.999997
0.999994
1
0.94342
0.989799
0.975347
0.863094
0.763488
0.761177
0.511462
0.514215
0.992236
0.998965
0.957053
0.914365
0.986005
0.998272
0.999996
0.999924
1
1
0.999994
0.99828
0.998321
0.992383
0.986979
0.998389
0.916292
0.770058
0.947411
0.956191
0.912967
0.490734
0.53442
0.199494
0.927143
0.789474
0.796984
0.550619
0.817407
0.801319
0.550567
0.715045
0.47574
0.999631
0.998184
0.999545
0.978935
0.994876
0.996713
0.999343
0.986395
0.978923
0.994832
0.99986
0.99992
0.782877
0.697688
0.541288
0.976538
0.900008
0.475622
0.299845
0.723257
0.9415
0.97864
0.716002
0.756769
0.702261
0.657587
0.358394
0.780757
0.279053
0.780757
0.818707
0.907679
0.561846
0.180738
0.0547547
0.422926
0.326925
0.999993
0.999999
0.999998
1
1
1
1
1
1
1
0.197404
0.458129
0.840466
0.368841
0.0472726
0.0772471
1
1
1
1
0.948983
0.0694607
0.175796
0.457706
0.999845
0.997817
0.523068
0.179428
0.187063
0.172083
0.940278
0.76653
0.963313
0.314447
0.999851
0.999941
0.999979
0.334054
0.179851
0.179854
0.416591
0.908397
0.96737
0.995588
0.995695
0.995695
0.995695
0.995695
0.995695
0.995695
0.995695
0.995695
0.995695
0.995695
0.995695
0.995695
0.995695
0.995695
0.995695
0.967362
0.908774
0.988512
0.995695
0.995695
0.995695
0.995695
0.995695
0.995695
0.995695
0.778274
0.194361
0.633269
0.712848
0.788876
0.269263
0.593161
0.974338
0.99336
0.996304
0.997325
0.686361
0.904286
0.999986
1
0.999998
0.89309
0.977446
1
1
1
0.999998
0.895845
0.978274
1
0.999998
0.895846
0.978274
1
1
0.999998
0.978274
1
1
1
0.999998
0.978274
1
1
1
0.999998
0.978274
1
1
1
0.999998
0.895846
0.978274
1
1
1
0.999998
0.895846
0.978274
1
1
0.999998
0.895846
0.978274
1
1
1
0.999998
0.895846
0.978274
1
0.999998
0.895846
0.978274
1
1
0.999998
0.978274
1
1
1
0.999998
0.978274
1
1
1
0.999998
0.978273
0.999986
0.999999
1
0.999995
0.885012
0.974642
0.974338
0.993405
0.996619
0.988846
0.480318
0.840869
0.194361
0.745305
0.608029
0.557266
0.807759
1
1
0.999768
0.810952
1
1
0.730392
0.72112
0.915874
0.982775
0.995603
0.998582
0.773807
0.767289
0.738699
0.999072
0.709322
0.346595
0.991201
0.720899
0.401639
0.916925
0.760641
0.803234
0.463915
0.812505
0.750052
0.815636
0.800722
0.731691
0.178173
0.601466
0.232178
0.558227
0.990377
0.99169
0.735623
0.940415
0.96088
0.71506
0.877215
0.480806
0.843805
0.697409
0.989555
0.948588
0.974643
0.994123
0.962157
0.895837
0.978273
0.978274
0.962165
0.962165
0.978274
0.962165
0.895846
0.978274
0.962165
0.994124
0.962165
0.978274
0.962165
0.978274
0.895846
0.978274
0.962165
0.994124
0.962165
0.978274
0.994124
0.962165
0.895846
0.978274
0.978274
0.962165
0.962165
0.978274
0.962165
0.895846
0.978274
0.962165
0.994125
0.962165
0.978274
0.962165
0.977446
0.686251
0.903584
0.843703
0.495649
0.427529
0.558702
0.744243
0.762933
0.857309
0.999817
0.206342
0.998753
0.863845
0.887722
0.998619
0.999813
0.196948
0.637465
0.397075
0.997026
0.426395
0.196117
0.878375
0.982792
0.741611
0.999812
0.225263
0.414082
0.412506
0.955603
0.896559
0.996363
0.982749
0.995564
0.990001
0.811834
0.9939
0.978176
0.9941
0.977655
0.993845
0.977357
0.993795
0.977617
0.813869
0.99371
0.978042
0.993916
0.97701
0.993672
0.977107
0.993704
0.976939
0.792339
0.994524
0.979526
0.994439
0.979921
0.994321
0.97952
0.994444
0.979199
0.888584
0.995572
0.983589
0.995625
0.987051
0.99998
0.999946
0.999998
0.994145
0.996002
0.997713
0.734809
0.90424
0.879753
0.981737
0.988873
0.995235
0.995958
0.999865
0.891938
0.999938
0.999891
0.999991
0.998791
0.981298
0.848101
0.999886
0.558914
0.965931
0.745513
0.950462
0.63815
0.967451
0.993049
0.824931
0.999893
0.999997
0.998916
0.999497
0.999956
0.991312
0.942946
0.822947
0.612315
0.384067
0.204297
0.915897
0.96769
0.998416
0.998752
0.831451
0.920988
0.993495
0.972576
0.999827
0.873618
0.901796
0.901874
0.901874
0.901874
0.901874
0.901874
0.901874
0.901874
0.901874
0.901874
0.901874
0.901874
0.901874
0.873618
0.826184
0.704158
0.263863
0.263828
0.999814
0.998905
0.999034
0.9996
0.996697
0.940386
0.813374
0.843501
0.992541
0.999968
1
1
0.961118
0.915889
0.97723
0.993989
0.994005
0.995196
0.999349
0.998166
1
0.999998
0.994822
0.987634
0.987712
0.993356
0.982346
0.981887
0.720899
0.95335
0.999526
0.998692
0.999754
0.99874
0.992294
0.89495
0.707676
0.84117
0.841151
0.910906
0.940282
0.994864
0.336123
0.984763
0.995132
0.998944
0.956266
0.955551
0.976315
0.885563
0.692576
0.255826
0.788753
0.455654
0.966284
1
1
1
1
1
1
1
1
1
1
1
1
1
1
1
1
1
1
1
1
1
1
1
1
1
1
1
1
1
1
1
1
1
1
1
1
1
1
1
1
1
1
1
1
1
1
1
1
1
1
1
1
1
0.982977
0.966293
0.455809
0.695833
0.256109
0.707762
0.906849
0.220831
0.992294
0.998739
0.927669
0.955191
0.495991
0.959634
0.999963
0.998572
0.996766
0.856208
0.984177
0.968205
0.965461
0.971087
0.886601
0.947349
0.981422
0.999283
0.996472
0.983866
0.912967
0.0893314
0.295175
0.96543
0.903413
0.332642
0.872721
0.854144
0.94833
0.98491
0.781151
0.693056
0.999743
0.99424
1
0.999979
0.82368
0.818471
1
1
0.848075
1
0.830775
1
0.84837
1
1
1
1
0.848417
0.834824
1
1
0.848417
0.834824
1
0.834824
1
0.848417
1
1
1
0.848417
0.834824
1
1
1
1
0.848417
0.834824
1
1
1
1
0.848417
0.834824
1
1
0.848417
1
0.834824
1
0.848417
1
1
1
1
0.848417
0.834824
1
1
0.848417
0.834824
1
0.834824
1
0.848417
1
1
1
0.848417
0.834824
1
1
1
1
0.848417
0.834824
1
1
1
1
0.848417
0.834824
1
1
0.848417
1
0.834824
1
0.848417
1
1
1
1
0.848417
0.834824
1
1
0.848417
0.834824
1
0.834824
1
0.848417
1
1
1
0.848417
0.834824
1
1
1
1
0.848417
0.834824
1
1
1
1
0.848417
0.834824
1
1
0.848417
1
0.834824
1
0.848417
1
1
1
1
0.848413
0.83482
1
1
0.848381
0.834778
1
0.834481
0.999981
0.842849
1
0.988469
0.999841
0.829475
0.806487
0.999898
0.999985
0.998432
0.973276
0.492577
0.309126
0.950349
0.975419
0.935368
0.91093
0.304278
0.429995
0.895793
0.741458
0.212581
0.843487
0.838434
0.745855
0.749707
0.701899
0.811978
0.999829
0.999931
0.999981
0.770659
0.898209
0.988996
0.800611
0.868416
0.181278
0.134534
0.799632
0.192444
0.88134
0.823022
0.740395
0.770164
0.999964
1
1
0.949051
0.999599
0.312084
0.917868
0.910957
0.197049
0.198573
0.945378
0.393026
0.494473
0.99839
0.881688
1
0.999993
1
1
0.997838
0.861962
0.999881
0.916766
0.188808
0.861515
0.565459
0.201218
0.916888
0.528996
0.187052
0.822689
0.686481
0.217162
0.999955
0.999965
0.847032
0.99997
0.42269
0.909862
0.154118
0.999996
1
1
0.999938
0.999991
0.999975
0.978024
0.876745
0.890181
0.693514
0.834696
0.999956
0.99998
1
0.999999
0.999992
0.999998
0.979714
0.993887
0.999885
0.998925
0.958651
0.953496
0.916275
0.946843
0.994902
0.937807
0.985982
0.97579
0.99754
0.991374
0.999986
0.999985
0.999999
0.998156
0.999824
0.97861
0.971762
0.98193
0.981109
0.966289
0.966235
0.826788
0.915899
0.9563
0.931694
0.818563
0.877494
0.999964
0.999874
0.96613
0.981421
0.846179
0.923777
0.972579
0.970816
0.999987
0.997636
0.999846
0.991227
0.974881
0.993343
0.930704
0.816831
0.930176
0.818197
0.674325
0.242124
0.712815
0.269527
0.996096
0.995665
0.999993
1
1
1
1
1
1
1
1
1
1
1
1
1
1
1
1
1
1
1
1
1
1
1
1
1
1
1
1
1
1
1
1
1
1
1
1
1
1
1
1
1
1
1
1
1
1
1
1
1
0.999992
0.999993
0.996118
0.995667
0.714673
0.269686
0.242357
0.846206
0.949317
0.981421
0.996479
0.96613
0.776732
0.938783
0.910723
0.912067
0.949646
0.806547
0.812745
0.999868
0.999963
0.999578
0.990939
0.960143
0.744243
0.762933
0.985039
0.985823
0.857309
0.985534
0.994171
0.206342
0.991792
0.922153
0.916559
0.888591
0.996605
0.994945
0.16082
0.204511
0.55701
0.39702
0.973362
0.958605
0.426401
0.977872
0.950913
0.779946
0.896754
0.749147
0.985909
0.981098
0.990835
0.776684
0.990853
0.988006
0.773567
0.988846
0.956775
0.705
0.996358
0.999991
0.999991
0.998789
0.999992
0.999999
0.975858
0.999997
0.99984
0.999846
0.99936
1
0.999999
0.994428
0.989394
0.999967
0.985823
0.960468
0.999977
0.999929
0.998506
0.996618
0.999993
0.999992
0.999989
0.999996
0.997101
0.999993
0.976271
0.999991
0.995378
0.803999
0.944773
0.999999
1
1
1
1
1
0.999984
1
1
1
1
1
1
0.995695
0.999999
0.999998
1
1
0.999994
0.99922
1
0.99938
1
0.999999
1
1
1
1
0.999999
1
1
0.995999
0.999998
0.99615
0.978134
1
1
1
1
1
1
1
1
1
1
1
1
1
0.995695
1
1
1
1
0.99938
1
0.994124
1
1
1
1
1
1
1
1
1
0.99615
0.999998
0.99615
0.978274
1
1
1
1
1
1
1
1
1
1
1
1
0.995695
0.995695
1
1
1
1
1
0.99938
1
1
0.994124
1
1
1
1
1
1
1
1
1
0.99615
0.999998
0.99615
0.978274
1
1
1
1
1
1
1
1
1
1
1
1
1
0.995695
1
1
1
1
1
1
0.994124
1
1
1
1
1
1
1
1
0.99615
0.999998
0.99615
0.895846
0.978274
1
1
1
1
1
1
1
1
1
1
1
1
0.995695
1
1
1
1
1
1
1
1
1
1
1
1
0.99615
0.999998
0.99615
0.978274
1
1
1
1
1
1
1
1
1
1
1
1
1
1
0.995695
1
1
1
1
1
0.994124
0.99938
1
1
1
1
1
1
0.99615
0.999998
0.99615
0.978274
1
1
1
1
1
1
1
1
1
1
1
1
1
0.995695
0.995695
1
1
1
1
1
1
0.994124
0.99938
1
1
1
1
1
1
1
0.99615
0.999998
0.99615
0.978274
1
1
1
1
1
1
1
1
1
1
1
1
1
0.995695
1
1
1
0.99938
1
1
0.99938
1
1
1
1
1
1
1
0.99615
0.999998
0.99615
0.895846
0.978274
1
1
1
1
1
1
1
1
1
1
1
1
1
0.995695
1
1
1
1
1
0.99938
1
0.99938
1
1
1
1
1
1
1
1
1
0.99615
0.999998
0.99615
0.978274
1
1
1
1
1
1
1
1
1
1
1
1
1
0.995695
1
1
1
1
0.99938
1
0.994124
1
1
1
1
1
1
1
1
1
0.99615
0.999998
0.99615
0.978274
1
1
1
1
1
1
1
1
1
1
1
1
0.995695
0.995695
1
1
1
1
1
0.99938
1
1
0.994124
1
1
1
1
1
1
1
1
1
0.99615
0.999998
0.99615
0.978274
1
1
1
1
1
1
1
1
1
1
1
1
1
0.995695
1
1
1
1
1
1
0.994124
1
1
1
1
1
1
1
1
0.99615
0.999998
0.99615
0.895846
0.978274
1
1
1
1
1
1
1
1
1
1
1
1
0.995695
1
1
1
1
1
1
1
1
1
1
1
1
0.99615
0.999998
0.99615
0.978274
1
1
1
1
1
1
1
1
0.999999
0.999999
1
1
1
1
0.995695
1
1
1
1
0.999999
0.994102
0.999378
1
1
1
1
1
0.999999
0.99615
0.999998
0.995998
0.978257
0.999999
0.999999
0.999323
0.999342
1
0.999356
0.999816
0.999984
0.99967
0.993813
1
0.999911
0.999836
0.995689
0.988474
0.999998
0.998755
0.997909
0.999994
0.998679
0.996797
0.977465
0.992656
0.999999
0.999259
0.99938
0.998623
0.999991
0.99489
0.996229
0.995371
0.997555
0.973675
0.965909
0.996358
0.876184
0.884385
0.998789
0.878774
0.938293
0.975858
0.927351
0.561714
0.540245
0.999353
0.955916
0.941609
0.542006
0.989377
0.69293
0.985849
0.973192
0.859509
0.693295
0.543696
0.996047
0.875559
0.872507
0.880771
0.835471
0.983989
0.680004
0.946516
0.768924
0.612304
0.333357
0.769702
0.192448
0.123768
0.676764
0.769829
0.745214
0.416165
0.706521
0.838586
0.749962
0.753915
0.705181
0.813658
0.999994
0.822756
1
0.770659
0.7558
0.89821
1
0.800679
0.705627
0.868905
0.397092
0.504657
0.409658
0.132854
0.452693
0.185263
0.804569
0.685829
0.823923
0.80246
0.742458
0.775577
0.756342
0.898687
0.821185
1
0.999766
1
1
0.997051
0.734128
0.665872
0.356729
0.891419
0.8257
0.204551
0.498349
0.323868
0.98284
0.972353
0.981971
0.960853
0.275679
0.619047
0.999786
0.773192
0.997993
0.265133
0.514551
0.210959
0.921012
0.199747
0.475747
0.529038
0.217163
0.0941078
0.92219
0.924589
0.986235
0.44526
0.892536
0.723015
0.844694
0.185812
0.279052
0.179702
0.65017
0.81014
0.0890142
0.999999
1
0.999984
0.999998
0.872881
0.717657
0.757722
0.885012
0.861305
0.895846
0.895846
0.895846
0.895846
0.895846
0.895846
0.895846
0.895846
0.895846
0.895846
0.895846
0.895846
0.895846
0.895845
0.89309
0.895295
0.263823
0.290812
0.185812
0.472807
0.402124
0.350601
0.794555
0.166761
0.395195
0.171784
0.419113
0.26399
0.197199
0.334897
0.778774
0.843954
0.512871
0.917895
0.781813
0.965923
0.961536
0.834044
0.993956
0.962077
0.834712
0.994105
0.834812
0.895763
0.978257
0.962165
0.834823
0.962165
0.978274
0.962165
0.834824
0.994124
0.834824
0.962165
0.994124
0.834824
0.895846
0.978274
0.962165
0.834824
0.962165
0.834824
0.994124
0.978274
0.962165
0.834824
0.994124
0.962165
0.834824
0.994124
0.834824
0.895846
0.978274
0.962165
0.834824
0.962165
0.994124
0.978274
0.962165
0.834824
0.994124
0.834824
0.962165
0.834824
0.895846
0.978274
0.962165
0.834824
0.962165
0.834824
0.978274
0.962165
0.834824
0.994124
0.962165
0.834824
0.994124
0.834824
0.895846
0.978274
0.962165
0.834824
0.962165
0.978274
0.962165
0.834824
0.994124
0.834824
0.962165
0.994124
0.834824
0.895846
0.978274
0.962165
0.834824
0.962165
0.834824
0.994124
0.978274
0.962165
0.834824
0.994124
0.962165
0.834824
0.994125
0.834824
0.895846
0.978274
0.962164
0.834823
0.96215
0.994123
0.978134
0.958004
0.826659
0.993075
0.832926
0.946777
0.752608
0.803983
0.944653
0.705319
0.62846
0.527163
0.186512
0.68418
0.859337
0.791496
0.87549
0.87906
0.826344
0.802458
0.840628
0.844531
0.807759
1
1
1
0.815142
0.730392
0.7558
0.43387
0.397072
0.891015
0.189444
0.189386
0.906544
0.766012
0.801481
0.757192
0.815174
1
0.804565
0.999781
0.730837
0.993968
0.739374
0.645828
0.232057
0.786034
0.7191
0.823872
0.803755
0.83846
1
0.756348
0.999877
0.414257
0.227884
0.346626
0.712042
0.217901
0.40161
0.205093
0.817638
0.816395
0.807059
0.999984
0.374282
0.452362
0.710659
0.216388
0.985671
0.990101