/*--------------------------------*- C++ -*----------------------------------*\
  =========                 |
  \\      /  F ield         | OpenFOAM: The Open Source CFD Toolbox
   \\    /   O peration     | Website:  https://openfoam.org
    \\  /    A nd           | Version:  10
     \\/     M anipulation  |
\*---------------------------------------------------------------------------*/
FoamFile
{
    format      ascii;
    class       volVectorField;
    location    "0";
    object      wallShearStress;
}
// * * * * * * * * * * * * * * * * * * * * * * * * * * * * * * * * * * * * * //

dimensions      [0 2 -2 0 0 0 0];

internalField   uniform (0 0 0);

boundaryField
{
    front
    {
        type            cyclic;
    }
    Back
    {
        type            cyclic;
    }
    inlet
    {
        type            calculated;
        value           uniform (0 0 0);
    }
    outlet
    {
        type            calculated;
        value           uniform (0 0 0);
    }
    upperPatch
    {
        type            calculated;
        value           uniform (0 0 0);
    }
    ground
    {
        type            calculated;
        value           nonuniform List<vector> 
8153
(
(-0.000560372 6.65169e-05 -4.40759e-06)
(-0.000523326 8.55583e-06 -2.79653e-07)
(-0.00104836 -4.43002e-05 2.20593e-08)
(-0.00107049 -4.038e-05 -3.59787e-06)
(-0.00104834 -4.42986e-05 -2.21511e-08)
(-0.00165784 5.73349e-05 -4.93584e-08)
(-0.00165787 5.73359e-05 4.9359e-08)
(-0.000525131 1.09851e-05 8.00572e-08)
(-0.000359715 -4.23625e-05 -1.54917e-06)
(-0.000519399 -1.9632e-05 -1.24649e-07)
(-0.000512968 9.67842e-06 1.01022e-07)
(-0.000253332 3.58573e-05 5.54987e-09)
(-0.000540292 -7.3825e-05 -6.42955e-06)
(-0.000479136 -3.8442e-05 -1.3039e-06)
(-0.000525135 1.09852e-05 -8.0059e-08)
(-0.000406446 5.22401e-05 -2.50468e-06)
(-0.00104345 2.2052e-05 4.98051e-07)
(-0.000981848 -2.68983e-05 2.63337e-07)
(-0.000275217 3.77157e-05 7.33516e-08)
(-0.00047494 -5.57331e-05 4.5725e-06)
(-0.000359839 -4.2378e-05 1.55283e-06)
(-0.000963697 4.82528e-05 3.58537e-06)
(-0.000554627 6.52535e-05 4.74585e-06)
(-0.00100417 1.88334e-05 4.60727e-07)
(-0.000891348 2.41437e-05 -1.57465e-06)
(-0.000533549 7.57719e-05 8.92022e-06)
(-0.000486986 -1.84779e-05 7.46074e-09)
(-0.00153101 -0.000176192 -2.10213e-05)
(-0.000851268 3.00131e-05 2.68404e-07)
(-0.00108103 -0.000144108 -7.1677e-06)
(-0.000853326 2.70054e-05 9.38518e-07)
(-0.000936141 3.52825e-05 -2.36897e-06)
(-0.000369798 2.1744e-05 1.37038e-06)
(-0.000539304 -7.36815e-05 6.49109e-06)
(-0.000542309 -6.97923e-05 -4.87722e-06)
(-0.000955899 -1.34808e-05 -1.75926e-07)
(-0.000955833 -1.34798e-05 1.75915e-07)
(-0.00107056 -4.03833e-05 3.59833e-06)
(-0.00041312 -5.84987e-05 -2.69604e-06)
(-0.000574024 -4.37563e-05 -1.13594e-06)
(-0.000523743 8.56245e-06 2.79863e-07)
(-0.000574277 8.16452e-05 -1.07955e-06)
(-0.00166726 -0.000217185 -2.46138e-05)
(-0.000691113 2.78354e-06 4.39715e-08)
(-0.000369595 2.1732e-05 -1.36962e-06)
(-0.000928521 1.403e-05 -6.15118e-07)
(-0.00102782 -3.25513e-06 9.96642e-09)
(-0.0010539 1.39449e-06 1.05124e-07)
(-0.000807667 -8.47587e-05 -6.34039e-06)
(-0.000513204 9.68287e-06 -1.01068e-07)
(-0.000964034 4.8277e-05 -3.59038e-06)
(-0.000531877 5.32043e-05 -4.6575e-06)
(-0.000601422 8.57665e-05 -6.4893e-08)
(-0.00106071 6.73156e-08 -4.75483e-09)
(-0.000918169 -2.46153e-05 2.27555e-07)
(-0.000343635 -1.70782e-05 7.88191e-07)
(-0.000542805 7.74563e-05 -6.975e-06)
(-0.000808078 -8.48014e-05 6.34329e-06)
(-0.000255977 -3.6656e-05 3.05023e-07)
(-0.000345628 2.93996e-05 7.92491e-07)
(-0.00157173 7.17224e-05 3.27303e-07)
(-0.00156994 7.35241e-05 -1.16835e-06)
(-0.000479124 -3.8439e-05 1.29745e-06)
(-0.000412647 -5.843e-05 2.70039e-06)
(-0.000981894 -9.74147e-05 -1.63683e-05)
(-0.000551053 -7.17024e-05 2.02572e-06)
(-0.000936043 3.52785e-05 2.36875e-06)
(-0.000531584 5.31539e-05 4.65735e-06)
(-0.00173373 0.000189632 2.57018e-05)
(-0.000474862 -5.57118e-05 -4.53785e-06)
(-0.000255963 -3.66537e-05 -3.03775e-07)
(-0.000930577 4.23352e-05 1.62459e-06)
(-0.00098651 2.06183e-05 1.2471e-06)
(-0.00100176 1.299e-05 -6.26221e-09)
(-0.00100573 -4.70883e-06 1.14024e-08)
(-0.000999497 -5.17598e-06 1.44556e-09)
(-0.000854348 -2.33214e-05 -1.4296e-06)
(-0.000858654 -1.7656e-05 1.20575e-08)
(-0.000986919 2.10457e-05 -1.18228e-06)
(-0.00100718 -5.23222e-06 2.35878e-09)
(-0.00085148 -2.34112e-05 1.37395e-06)
(-0.00108097 -0.0001441 7.17018e-06)
(-0.00173254 0.000189348 -2.56964e-05)
(-0.00110959 -2.26026e-06 -5.78949e-08)
(-0.00153118 -0.000176211 2.10286e-05)
(-0.00166708 -0.000217147 2.46938e-05)
(-0.00136584 -5.57723e-06 6.64416e-07)
(-0.000650845 7.53627e-06 -5.04142e-10)
(-0.000650819 7.53598e-06 5.04152e-10)
(-0.000563649 -3.29763e-05 -6.57527e-06)
(-0.000659353 -4.60245e-05 2.85793e-06)
(-0.000759242 -4.22364e-05 4.26888e-08)
(-0.000698417 -4.53417e-05 -1.6891e-08)
(-0.000759207 -4.22345e-05 -4.26872e-08)
(-0.000698388 -4.53398e-05 1.68901e-08)
(-0.000687065 -3.11943e-05 -7.1902e-07)
(-0.000585405 -5.41876e-05 -3.2096e-06)
(-0.000589449 -5.55819e-05 8.44771e-07)
(-0.000556796 -2.33324e-05 1.43082e-06)
(-0.000504827 -3.2678e-05 -2.22137e-06)
(-0.00542333 8.33678e-05 1.75123e-07)
(-0.00550518 -0.000125787 -5.12855e-07)
(-0.00541871 -0.000144138 -1.0738e-08)
(-0.00799569 -0.00110229 2.90788e-07)
(-0.00544352 0.00023938 1.60257e-08)
(-0.00359988 4.0975e-05 1.39882e-09)
(-0.00320252 5.14251e-05 4.14593e-09)
(-0.00276552 -7.61495e-05 5.24028e-08)
(-0.0031284 -8.25899e-05 4.80544e-08)
(-0.00376847 -0.000522198 -3.7511e-05)
(-0.00334593 0.00013868 5.88993e-09)
(-0.00271459 3.08703e-05 -2.10821e-11)
(-0.00271137 4.35052e-05 0)
(-0.00273662 -7.55796e-05 -7.00569e-22)
(-0.00271355 -7.13801e-05 -2.85475e-10)
(-0.00289404 -0.000407025 4.71244e-09)
(-0.00272401 0.000112915 -3.29513e-10)
(-0.00270514 3.07625e-05 0)
(-0.00270624 4.3423e-05 0)
(-0.00272001 -7.51191e-05 -0)
(-0.00271115 -7.13326e-05 -0)
(-0.00302472 -0.000425395 -1.6827e-19)
(-0.00271845 0.000112686 0)
(-0.00270514 3.07625e-05 0)
(-0.00270624 4.3423e-05 0)
(-0.00272001 -7.51191e-05 -0)
(-0.00271115 -7.13326e-05 -0)
(-0.00302058 -0.000424812 -0)
(-0.00271845 0.000112686 0)
(-0.00270514 3.07625e-05 0)
(-0.00270624 4.3423e-05 0)
(-0.00272001 -7.51191e-05 -0)
(-0.00271115 -7.13326e-05 -0)
(-0.00302058 -0.000424812 -0)
(-0.00271845 0.000112686 0)
(-0.00270514 3.07625e-05 0)
(-0.00270624 4.3423e-05 0)
(-0.00272001 -7.51191e-05 -0)
(-0.00271115 -7.13326e-05 -0)
(-0.00302058 -0.000424812 -0)
(-0.00271845 0.000112686 0)
(-0.00270514 3.07625e-05 0)
(-0.00270624 4.3423e-05 0)
(-0.00272001 -7.51191e-05 -0)
(-0.00271115 -7.13326e-05 -0)
(-0.00302058 -0.000424812 -0)
(-0.00271845 0.000112686 0)
(-0.00270514 3.07625e-05 0)
(-0.00270624 4.3423e-05 0)
(-0.00272001 -7.51191e-05 -0)
(-0.00271115 -7.13326e-05 -0)
(-0.00302058 -0.000424812 -0)
(-0.00271845 0.000112686 0)
(-0.00270514 3.07625e-05 0)
(-0.00270624 4.3423e-05 0)
(-0.00272001 -7.51191e-05 -0)
(-0.00271115 -7.13326e-05 -0)
(-0.00302058 -0.000424812 -0)
(-0.00271845 0.000112686 0)
(-0.00270514 3.07625e-05 0)
(-0.00270624 4.3423e-05 0)
(-0.00272001 -7.51191e-05 -0)
(-0.00271115 -7.13326e-05 -0)
(-0.00302058 -0.000424812 -0)
(-0.00271845 0.000112686 0)
(-0.00270514 3.07625e-05 0)
(-0.00270624 4.3423e-05 0)
(-0.00272001 -7.51191e-05 -0)
(-0.00271115 -7.13326e-05 -0)
(-0.00302058 -0.000424812 -0)
(-0.00271845 0.000112686 0)
(-0.00270514 3.07625e-05 0)
(-0.00270624 4.3423e-05 0)
(-0.00272001 -7.51191e-05 -0)
(-0.00271115 -7.13326e-05 -0)
(-0.00302058 -0.000424812 -0)
(-0.00271845 0.000112686 0)
(-0.00270514 3.07625e-05 0)
(-0.00270624 4.3423e-05 0)
(-0.00272001 -7.51191e-05 -0)
(-0.00271115 -7.13326e-05 -0)
(-0.00302058 -0.000424812 -0)
(-0.00271845 0.000112686 0)
(-0.00270514 3.07625e-05 0)
(-0.00270624 4.3423e-05 0)
(-0.00272001 -7.51191e-05 -0)
(-0.00271115 -7.13326e-05 -0)
(-0.00302058 -0.000424812 -0)
(-0.00271845 0.000112686 0)
(-0.00270514 3.07625e-05 0)
(-0.00270624 4.3423e-05 0)
(-0.00272001 -7.51191e-05 -0)
(-0.00271115 -7.13326e-05 -0)
(-0.00302058 -0.000424812 -0)
(-0.00271845 0.000112686 0)
(-0.00270514 3.07625e-05 0)
(-0.00270624 4.3423e-05 0)
(-0.00272001 -7.51191e-05 -0)
(-0.00271115 -7.13326e-05 -0)
(-0.00302058 -0.000424812 -0)
(-0.00271845 0.000112686 0)
(-0.00270514 3.07625e-05 0)
(-0.00270624 4.3423e-05 0)
(-0.00272001 -7.51191e-05 -0)
(-0.00271115 -7.13326e-05 -0)
(-0.00302104 -0.000424878 1.69965e-09)
(-0.00271845 0.000112686 0)
(-0.00271459 3.08703e-05 2.10827e-11)
(-0.00271137 4.35052e-05 0)
(-0.00273659 -7.55779e-05 3.02251e-10)
(-0.00271371 -7.13829e-05 -0)
(-0.00318069 -0.000447362 6.27419e-08)
(-0.00273635 0.000113425 -2.45217e-10)
(-0.00359985 4.09746e-05 -1.39883e-09)
(-0.00320251 5.1425e-05 -4.14594e-09)
(-0.00276637 -7.61719e-05 -5.21126e-08)
(-0.00314153 -8.32757e-05 -1.27363e-07)
(-0.00312149 -0.000432597 3.05928e-05)
(-0.00286858 0.000118895 -5.32437e-09)
(-0.00309452 2.06134e-05 0)
(-0.00285013 1.89866e-05 1.53055e-11)
(-0.00330085 2.50239e-05 -1.08825e-09)
(-0.00313607 2.08951e-05 1.69751e-11)
(-0.00306989 -2.15103e-05 -0)
(-0.00541787 3.61008e-05 -1.03595e-10)
(-0.0031048 -1.07436e-05 1.30873e-10)
(-0.00441463 3.75876e-05 7.4923e-08)
(-0.00541026 4.6542e-05 -1.53423e-10)
(-0.00541006 6.20776e-05 -3.42898e-11)
(-0.0043608 3.81031e-05 -2.89303e-08)
(-0.00541018 6.39558e-05 -1.81945e-10)
(-0.00541737 -0.000127557 -1.01986e-09)
(-0.0045336 -0.000119627 -2.39398e-06)
(-0.0054279 -0.000187687 -4.50041e-09)
(-0.00455446 -0.000252954 -6.80783e-06)
(-0.00223577 -9.63755e-05 -4.16881e-06)
(-0.00545058 0.000191508 1.4621e-08)
(-0.00548321 0.000103033 1.14235e-07)
(-0.00541269 8.40975e-05 -9.0787e-08)
(-0.00544996 9.18111e-05 -2.98646e-07)
(-0.0070715 -0.000188225 1.69966e-08)
(-0.0054667 -0.000145474 -7.03618e-09)
(-0.00557269 -5.18883e-05 8.28484e-09)
(-0.00514841 -0.000114472 1.58272e-06)
(-0.00483573 -5.04501e-05 1.75183e-07)
(-0.00534284 -0.000736857 2.58166e-07)
(-0.00551349 0.000156155 -3.08777e-08)
(-0.005471 0.000243661 3.66202e-07)
(-0.00542195 0.000155843 -3.28906e-07)
(-0.00542666 -2.5455e-05 9.42593e-08)
(-0.00612923 -3.47822e-05 -1.41601e-09)
(-0.00607012 -0.00043574 -1.04615e-08)
(-0.00462134 -0.000328042 4.877e-06)
(-0.0027711 1.84598e-05 -5.33403e-22)
(-0.00294277 2.23107e-05 9.86041e-11)
(-0.0030619 2.0397e-05 4.8746e-11)
(-0.0051256 3.89255e-05 6.99007e-08)
(-0.00287285 1.91421e-05 6.60997e-21)
(-0.00284051 -1.99031e-05 -0)
(-0.00477439 3.18101e-05 -1.30754e-11)
(-0.00468045 -3.27926e-05 2.55783e-07)
(-0.00286143 -9.88919e-06 -2.48558e-10)
(-0.00339677 2.93016e-05 2.2586e-09)
(-0.00470264 -1.62465e-05 -3.45187e-07)
(-0.0054157 3.60843e-05 2.47822e-10)
(-0.00340766 2.9293e-05 -7.05389e-10)
(-0.00541124 4.65506e-05 2.60334e-11)
(-0.00541016 6.2081e-05 3.25981e-10)
(-0.00541027 6.39538e-05 3.8794e-10)
(-0.00281724 0.000342039 -1.9558e-05)
(-0.00354117 -9.62806e-05 -6.49009e-07)
(-0.00541728 -0.000127524 -7.14248e-09)
(-0.00355309 -0.000206538 -8.76816e-07)
(-0.00192523 -8.19171e-05 -1.14334e-07)
(-0.0054279 -0.000187668 -2.17275e-08)
(-0.00543499 0.000191216 1.04597e-07)
(-0.00409713 2.73021e-05 4.45935e-23)
(-0.00306199 2.03975e-05 -4.87741e-11)
(-0.00506733 3.84832e-05 -6.91106e-08)
(-0.00468505 3.12148e-05 1.28306e-11)
(-0.00459237 -3.21755e-05 -2.50958e-07)
(-0.00462326 -1.59724e-05 3.39348e-07)
(-0.00540946 3.60411e-05 -5.28731e-11)
(-0.00540963 5.34703e-05 1.4837e-10)
(-0.0054095 4.65403e-05 1.73779e-09)
(-0.00540992 5.34668e-05 -4.76356e-10)
(-0.00540969 5.40353e-05 1.51669e-10)
(-0.00541027 6.20898e-05 6.06454e-10)
(-0.0054098 5.40334e-05 -5.69269e-10)
(-0.0054111 7.19899e-05 4.34093e-13)
(-0.00541027 6.39518e-05 2.1239e-11)
(-0.0054111 7.19946e-05 2.17726e-10)
(-0.00550146 9.13828e-05 -2.72512e-11)
(-0.00571974 9.50106e-05 -3.53365e-10)
(-0.0048417 0.00018412 -2.30462e-06)
(-0.0037734 0.000128055 -8.48835e-08)
(-0.00657402 0.000672968 3.89385e-06)
(-0.00541076 -4.67238e-05 -6.07336e-10)
(-0.00540972 -4.57045e-05 7.65992e-08)
(-0.0054384 -0.000211044 -3.37475e-09)
(-0.00541659 -0.00012723 5.20316e-08)
(-0.00543577 -0.000209121 -1.08381e-06)
(-0.00542626 -0.000187545 1.41736e-07)
(-0.00543794 -6.61076e-05 -4.75449e-09)
(-0.00572933 -6.99923e-05 7.20698e-08)
(-0.00547299 0.000284677 -2.99418e-08)
(-0.00552131 0.0002872 8.05424e-08)
(-0.00703973 -6.16616e-05 1.12834e-09)
(-0.00561393 0.000142206 2.2746e-09)
(-0.0054808 -4.80418e-05 -5.99532e-24)
(-0.00583515 0.000147802 -4.32332e-09)
(-0.00560958 0.000743224 -6.55248e-06)
(-0.00598896 0.000791422 8.78751e-08)
(-0.00701156 0.000975503 -1.11962e-05)
(-0.00616785 0.000873283 6.53448e-08)
(-0.00615667 -0.00079869 -2.16389e-07)
(-0.00566279 0.000200469 -4.39814e-07)
(-0.00582386 -0.000380661 -3.04586e-09)
(-0.00241166 -0.000159997 1.94609e-06)
(-0.0129345 -0.000869026 3.76602e-06)
(-0.00300253 -0.00020125 -9.49466e-07)
(-0.00249391 -9.48795e-05 5.82295e-10)
(-0.00441783 -0.000168091 -1.17335e-08)
(-0.00451075 -0.000171633 1.33657e-09)
(-0.00407458 -0.000155042 -0)
(-0.00403436 -0.000153511 -0)
(-0.00402348 -0.000153097 -0)
(-0.00402065 -0.00015299 -0)
(-0.00402057 -0.000152987 -0)
(-0.00402057 -0.000152987 -0)
(-0.00402057 -0.000152987 -0)
(-0.00402057 -0.000152987 -0)
(-0.00402057 -0.000152987 -0)
(-0.00402057 -0.000152987 -0)
(-0.00402057 -0.000152987 -0)
(-0.00402057 -0.000152987 -0)
(-0.00402057 -0.000152987 -0)
(-0.00402057 -0.000152987 -0)
(-0.00402057 -0.000152987 -0)
(-0.00402057 -0.000152987 -0)
(-0.00402057 -0.000152987 -0)
(-0.00402057 -0.000152987 -0)
(-0.00402057 -0.000152987 -0)
(-0.00402057 -0.000152987 -0)
(-0.00402057 -0.000152987 -0)
(-0.00402057 -0.000152987 -0)
(-0.00402057 -0.000152987 -0)
(-0.00402057 -0.000152987 -0)
(-0.00402057 -0.000152987 -0)
(-0.00402057 -0.000152987 -0)
(-0.00402057 -0.000152987 -0)
(-0.00402057 -0.000152987 -0)
(-0.00402057 -0.000152987 -0)
(-0.00402057 -0.000152987 -0)
(-0.00402057 -0.000152987 -0)
(-0.00402057 -0.000152987 -0)
(-0.00402057 -0.000152987 -0)
(-0.00402057 -0.000152987 -0)
(-0.00402057 -0.000152987 -0)
(-0.00402057 -0.000152987 -0)
(-0.00402057 -0.000152987 -0)
(-0.00402057 -0.000152987 -0)
(-0.00402057 -0.000152987 -0)
(-0.00402057 -0.000152987 -0)
(-0.00402065 -0.00015299 -0)
(-0.00402111 -0.000153007 -0)
(-0.00403436 -0.000153511 -0)
(-0.00402348 -0.000153097 -0)
(-0.00407458 -0.000155042 -0)
(-0.00441794 -0.000168096 1.17339e-08)
(-0.00249384 -9.48769e-05 -9.71705e-10)
(-0.0129327 -0.000868872 -3.7811e-06)
(-0.00300255 -0.000201245 9.49628e-07)
(-0.00582385 -0.00038066 3.04577e-09)
(-0.00241162 -0.000159992 -1.94382e-06)
(-0.00544163 8.80508e-05 -9.25523e-08)
(-0.00541479 8.32366e-05 -1.74846e-07)
(-0.00541898 8.76844e-05 9.21671e-08)
(-0.00626688 0.000598969 2.24494e-07)
(-0.00545626 -0.00012467 5.08296e-07)
(-0.00809711 -0.00116576 -2.68324e-07)
(-0.00799541 -0.00110225 -3.08404e-07)
(-0.00809692 -0.00116574 2.49683e-07)
(-0.00626683 -0.000441237 -8.21515e-09)
(-0.00563353 -0.000281911 5.51017e-21)
(-0.0057493 -0.000287718 -3.78648e-08)
(-0.00277109 1.84598e-05 4.77921e-22)
(-0.00294174 2.23028e-05 -9.85698e-11)
(-0.0027073 1.80348e-05 2.58244e-23)
(-0.0027098 2.05442e-05 0)
(-0.00296446 1.97486e-05 9.27172e-14)
(-0.00313757 2.0906e-05 3.3731e-11)
(-0.00542264 5.36836e-05 1.6357e-09)
(-0.00541204 3.6062e-05 1.03484e-10)
(-0.00540974 4.73451e-05 -3.57829e-10)
(-0.00541025 4.65419e-05 1.53423e-10)
(-0.00540959 5.59045e-05 -3.78226e-10)
(-0.00541015 6.20787e-05 3.42903e-11)
(-0.00541002 6.00834e-05 -2.72775e-10)
(-0.00541027 6.39568e-05 1.81948e-10)
(-0.00563683 0.000129228 -1.35037e-09)
(-0.0070558 0.000868687 -8.54175e-08)
(-0.00647516 0.00090469 5.2517e-08)
(-0.00712995 0.000996146 1.38756e-08)
(-0.00644455 0.000793384 -1.03956e-07)
(-0.00542075 -0.000153292 -0)
(-0.00541622 -0.000127535 -2.03946e-09)
(-0.00550244 -0.000394874 1.26174e-08)
(-0.00542698 -0.000187644 1.49984e-09)
(-0.00601048 0.000843162 -1.26628e-08)
(-0.0055447 0.000284006 -6.68655e-09)
(-0.00549056 0.00019291 -1.28613e-08)
(-0.00598184 -0.000781032 -6.24827e-09)
(-0.00549651 1.16763e-05 0)
(-0.00552139 -0.000721396 -6.64609e-07)
(-0.00266254 1.04377e-05 1.22407e-07)
(-0.00551183 0.000372594 -1.78052e-08)
(-0.00627234 -0.000820154 -1.58208e-06)
(-0.00353593 -1.06986e-06 6.55761e-08)
(-0.00583249 -0.000763765 -1.83299e-08)
(-0.00496242 -5.13661e-05 -1.31833e-06)
(-0.00628079 -0.000822472 1.31595e-08)
(-0.00525633 -5.43955e-05 1.39509e-06)
(-0.00606578 -0.000794314 -6.35451e-09)
(-0.00596356 -0.000780925 -6.2474e-09)
(-0.00546907 -5.65636e-05 -1.4524e-06)
(-0.00596356 -0.000780925 6.2474e-09)
(-0.00546907 -5.65636e-05 1.4524e-06)
(-0.00596356 -0.000780925 -6.2474e-09)
(-0.00546907 -5.65636e-05 -1.4524e-06)
(-0.00596356 -0.000780925 6.2474e-09)
(-0.00546907 -5.65636e-05 1.4524e-06)
(-0.00596356 -0.000780925 -6.2474e-09)
(-0.00596356 -0.000780925 -6.2474e-09)
(-0.00546907 -5.65636e-05 -1.4524e-06)
(-0.00596356 -0.000780925 6.2474e-09)
(-0.00546907 -5.65636e-05 1.4524e-06)
(-0.00596356 -0.000780925 -6.2474e-09)
(-0.00546907 -5.65636e-05 -1.4524e-06)
(-0.00596356 -0.000780925 6.2474e-09)
(-0.00546907 -5.65636e-05 1.4524e-06)
(-0.00596356 -0.000780925 -6.2474e-09)
(-0.00596356 -0.000780925 -6.2474e-09)
(-0.00546907 -5.65636e-05 -1.4524e-06)
(-0.00596356 -0.000780925 6.2474e-09)
(-0.00546907 -5.65636e-05 1.4524e-06)
(-0.00596356 -0.000780925 -6.2474e-09)
(-0.00546907 -5.65636e-05 -1.4524e-06)
(-0.00596356 -0.000780925 6.2474e-09)
(-0.00546907 -5.65636e-05 1.4524e-06)
(-0.00596356 -0.000780925 -6.2474e-09)
(-0.00596356 -0.000780925 -6.2474e-09)
(-0.00546907 -5.65636e-05 -1.4524e-06)
(-0.00596356 -0.000780925 6.2474e-09)
(-0.00546907 -5.65636e-05 1.4524e-06)
(-0.00596356 -0.000780925 -6.2474e-09)
(-0.00546907 -5.65636e-05 -1.4524e-06)
(-0.00596356 -0.000780925 6.2474e-09)
(-0.00546907 -5.65636e-05 1.4524e-06)
(-0.00596356 -0.000780925 -6.2474e-09)
(-0.00596356 -0.000780925 -6.2474e-09)
(-0.00546907 -5.65636e-05 -1.4524e-06)
(-0.00596356 -0.000780925 6.2474e-09)
(-0.00546907 -5.65636e-05 1.4524e-06)
(-0.00596356 -0.000780925 -6.2474e-09)
(-0.00546907 -5.65636e-05 -1.4524e-06)
(-0.00596356 -0.000780925 6.2474e-09)
(-0.00546907 -5.65636e-05 1.4524e-06)
(-0.00596356 -0.000780925 -6.2474e-09)
(-0.00596356 -0.000780925 -6.2474e-09)
(-0.00546907 -5.65636e-05 -1.4524e-06)
(-0.00596356 -0.000780925 6.2474e-09)
(-0.00546907 -5.65636e-05 1.4524e-06)
(-0.00596356 -0.000780925 -6.2474e-09)
(-0.00546907 -5.65636e-05 -1.4524e-06)
(-0.00596356 -0.000780925 6.2474e-09)
(-0.00546907 -5.65636e-05 1.4524e-06)
(-0.00596356 -0.000780925 -6.2474e-09)
(-0.00596356 -0.000780925 -6.2474e-09)
(-0.00546907 -5.65636e-05 -1.4524e-06)
(-0.00596356 -0.000780925 6.2474e-09)
(-0.00546907 -5.65636e-05 1.4524e-06)
(-0.00596356 -0.000780925 -6.2474e-09)
(-0.00546907 -5.65636e-05 -1.4524e-06)
(-0.00596356 -0.000780925 6.2474e-09)
(-0.00546907 -5.65636e-05 1.4524e-06)
(-0.00596356 -0.000780925 -6.2474e-09)
(-0.00596356 -0.000780925 -6.2474e-09)
(-0.00546907 -5.65636e-05 -1.4524e-06)
(-0.00596356 -0.000780925 6.2474e-09)
(-0.00546907 -5.65636e-05 1.4524e-06)
(-0.00627835 -0.000822151 -6.57721e-09)
(-0.00525622 -5.43936e-05 -1.39508e-06)
(-0.00582743 -0.0007631 1.22096e-08)
(-0.00496183 -5.13615e-05 1.31822e-06)
(-0.00575233 -0.000753258 1.80753e-08)
(-0.00625533 -0.00081794 1.57133e-06)
(-0.00353295 -1.06661e-06 -6.53742e-08)
(-0.00551283 -0.000720286 6.63671e-07)
(-0.00266144 1.04331e-05 -1.22358e-07)
(-0.00570962 -0.00074574 2.4296e-07)
(-0.00598196 -0.000781048 6.24839e-09)
(-0.00549651 1.16763e-05 0)
(-0.00558436 -0.000148605 7.18802e-09)
(-0.00545795 -0.000137025 -1.33458e-08)
(-0.00636166 0.000900114 -1.23714e-07)
(-0.00609134 0.000841217 -5.38369e-09)
(-0.00611164 0.000843999 -3.34023e-08)
(-0.00608282 0.00086534 -3.65348e-08)
(-0.00546131 0.000247277 -1.00452e-08)
(-0.00544317 0.000154164 3.4695e-08)
(-0.00544585 0.000246569 1.82321e-08)
(-0.00545826 0.000243544 5.33825e-09)
(-0.0054673 3.17458e-05 -4.41995e-11)
(-0.00565913 -3.2053e-05 -1.25162e-09)
(-0.00565945 -1.04977e-06 -1.68075e-10)
(-0.00609763 -0.000533666 -8.54141e-09)
(-0.00680447 -0.000488502 7.7495e-08)
(-0.00195658 8.13824e-06 1.45425e-08)
(-0.00445754 1.70224e-05 2.77743e-09)
(-0.00441417 1.66898e-05 -1.60206e-10)
(-0.00437581 1.65468e-05 1.41807e-23)
(-0.00436368 1.6501e-05 1.41414e-23)
(-0.00436368 1.6501e-05 1.41414e-23)
(-0.00436368 1.6501e-05 1.41414e-23)
(-0.00436368 1.6501e-05 1.41414e-23)
(-0.00436368 1.6501e-05 1.41414e-23)
(-0.00436368 1.6501e-05 1.41414e-23)
(-0.00436368 1.6501e-05 1.41414e-23)
(-0.00436368 1.6501e-05 1.41414e-23)
(-0.00436368 1.6501e-05 1.41414e-23)
(-0.00436368 1.6501e-05 1.41414e-23)
(-0.00436368 1.6501e-05 1.41414e-23)
(-0.00436368 1.6501e-05 1.41414e-23)
(-0.00436368 1.6501e-05 1.41414e-23)
(-0.00436368 1.6501e-05 1.41414e-23)
(-0.00436368 1.6501e-05 1.41414e-23)
(-0.00436368 1.6501e-05 1.41414e-23)
(-0.00436368 1.6501e-05 1.41414e-23)
(-0.00436368 1.6501e-05 1.41414e-23)
(-0.00436368 1.6501e-05 1.41414e-23)
(-0.00436368 1.6501e-05 1.41414e-23)
(-0.00436368 1.6501e-05 1.41414e-23)
(-0.00436368 1.6501e-05 1.41414e-23)
(-0.00436368 1.6501e-05 1.41414e-23)
(-0.00436368 1.6501e-05 1.41414e-23)
(-0.00436368 1.6501e-05 1.41414e-23)
(-0.00436368 1.6501e-05 1.41414e-23)
(-0.00436533 1.65072e-05 1.41468e-23)
(-0.00437256 1.65326e-05 1.58692e-10)
(-0.00475166 1.81379e-05 -2.72786e-09)
(-0.00429385 1.76952e-05 -2.82737e-08)
(-0.00405365 2.70103e-05 5.80437e-11)
(-0.00296451 1.97489e-05 -9.27018e-14)
(-0.00406144 3.09257e-05 9.59865e-09)
(-0.00469344 2.80398e-05 -4.51719e-08)
(-0.00370481 2.46839e-05 2.01068e-11)
(-0.00467935 -5.37739e-07 3.03828e-09)
(-0.00359714 -2.52047e-05 4.32266e-11)
(-0.00483581 3.40473e-05 2.51118e-08)
(-0.00363967 -1.25946e-05 1.61378e-10)
(-0.00519367 5.60507e-05 -7.14737e-08)
(-0.00540916 3.60444e-05 -4.60036e-10)
(-0.00540961 5.34652e-05 1.91909e-11)
(-0.00540954 4.73392e-05 -9.70633e-08)
(-0.00540971 5.33316e-05 5.79387e-09)
(-0.00540966 5.40347e-05 -4.21048e-10)
(-0.00541017 6.19663e-05 5.77345e-08)
(-0.00540993 5.40339e-05 9.05626e-10)
(-0.00541101 7.19895e-05 1.18015e-10)
(-0.00541033 6.35851e-05 1.35071e-08)
(-0.00541099 7.19913e-05 -4.80401e-12)
(-0.00556102 9.23718e-05 -7.54841e-10)
(-0.00363431 6.36056e-05 4.76854e-07)
(-0.00754957 0.000185746 -6.20894e-06)
(-0.00398969 0.000145826 -2.30684e-06)
(-0.0162407 0.000650013 -4.30474e-06)
(-0.00679674 0.000687909 -2.80197e-08)
(-0.00447673 0.000458984 1.82243e-05)
(-0.00354007 0.00045484 1.82157e-05)
(-0.00541039 -4.67338e-05 -1.6321e-20)
(-0.00541014 -4.47549e-05 -2.12364e-08)
(-0.00543652 -0.000210977 8.43367e-09)
(-0.00541549 -0.000124073 -8.99237e-07)
(-0.00543222 -0.000200292 2.63351e-06)
(-0.0054268 -0.000198771 4.38885e-06)
(-0.00546566 -0.000267668 -5.93906e-06)
(-0.00543421 -6.60663e-05 -1.51323e-08)
(-0.00544419 -0.00010336 -9.99914e-07)
(-0.00547027 0.000284619 -1.629e-08)
(-0.00547627 0.000279264 1.81349e-06)
(-0.00544565 -0.000144943 4.63448e-09)
(-0.00455942 -0.000121347 -1.10833e-07)
(-0.00598638 0.000151469 3.14979e-08)
(-0.005514 -4.83076e-05 -3.85813e-10)
(-0.00405481 -3.302e-05 1.37881e-07)
(-0.0052312 6.47912e-05 -4.30368e-06)
(-0.00331217 0.000462233 -2.74337e-07)
(-0.00629287 0.000831402 7.46582e-07)
(-0.00585929 0.000764485 5.63763e-05)
(-0.00648039 0.000917506 -2.61622e-08)
(-0.00577131 0.000816956 5.5974e-07)
(-0.00233119 0.000334135 -9.13294e-07)
(-0.00664593 -0.000862168 -3.87125e-07)
(-0.00636234 -0.0008262 4.80279e-06)
(-0.00213642 -0.000199945 -3.23849e-07)
(-0.00493343 -5.14671e-05 -1.78921e-07)
(-0.00461247 -9.97944e-05 -2.87247e-07)
(-0.0039528 -4.19604e-05 -2.29089e-08)
(-0.00596447 0.000796918 -8.50181e-07)
(-0.00599797 0.000840897 -1.40837e-06)
(-0.00597685 0.000837566 -2.16645e-06)
(-0.00547845 0.000356105 -1.44008e-06)
(-0.00542837 0.000188628 1.09339e-07)
(-0.00572637 0.000162449 -1.92615e-07)
(-0.00464443 0.00032613 6.97472e-07)
(-0.00552399 -3.19364e-05 1.69471e-08)
(-0.00370653 3.30913e-05 4.74893e-07)
(-0.00541741 3.60959e-05 -5.53413e-11)
(-0.00541908 4.46542e-05 7.62896e-08)
(-0.0054117 4.4594e-05 -7.61779e-08)
(-0.00544283 3.62652e-05 5.56025e-11)
(-0.00540934 4.46727e-05 -2.6816e-10)
(-0.00540956 5.34696e-05 -1.48368e-10)
(-0.00541026 6.39517e-05 -3.30022e-10)
(-0.00540966 5.4035e-05 -1.51668e-10)
(-0.00541036 6.11817e-05 1.37902e-10)
(-0.00541102 7.19888e-05 -4.34084e-13)
(-0.00553694 0.000144826 -2.69273e-09)
(-0.00546392 9.07593e-05 2.70654e-11)
(-0.00376193 0.000127666 8.46251e-08)
(-0.00610729 0.000358742 -9.73405e-08)
(-0.00646722 0.000734409 4.15355e-08)
(-0.0054104 -4.6722e-05 -7.75863e-10)
(-0.00541736 -0.000106223 -8.49659e-10)
(-0.00543671 -0.000211241 6.82772e-08)
(-0.00545927 -0.000170979 -7.53438e-09)
(-0.00541668 2.02584e-05 -1.97975e-11)
(-0.00582644 0.000180575 5.77392e-09)
(-0.00593867 0.000217633 -3.08294e-10)
(-0.00553742 -0.000217959 5.22086e-09)
(-0.00546297 -6.64146e-05 4.06216e-09)
(-0.00561842 -0.000150372 1.201e-09)
(-0.00542731 0.000189655 0)
(-0.00547703 0.000284891 3.22439e-08)
(-0.00541527 0.00011341 -9.0774e-10)
(-0.00558971 0.000168642 8.08465e-09)
(-0.005515 0.000139715 1.11738e-09)
(-0.00557991 -4.89156e-05 -3.90621e-10)
(-0.00553425 5.67766e-05 2.26642e-09)
(-0.00596791 0.000788696 -4.7093e-08)
(-0.00614241 0.000869312 1.58985e-07)
(-0.00773681 -0.000920116 1.10658e-07)
(-0.00773611 -0.000920034 -1.10647e-07)
(-0.00686212 -0.000781613 -1.27406e-07)
(-0.00611276 0.000861257 -2.62486e-06)
(-0.00630909 0.000890005 -3.12372e-07)
(-0.00647864 0.000753272 -4.89879e-08)
(-0.005726 0.000335462 -6.63508e-09)
(-0.00584303 0.000267952 1.41207e-09)
(-0.00663409 0.000304208 -3.46671e-08)
(-0.00550954 -6.749e-05 -0)
(-0.00621812 -0.000406475 2.53208e-08)
(-0.0060333 -0.000787751 1.2604e-08)
(-0.00570634 1.21814e-05 3.89764e-10)
(-0.00599814 -0.000783162 -0)
(-0.00610963 -0.000797786 -2.67671e-07)
(-0.00594639 1.27455e-05 4.44252e-10)
(-0.0062827 -0.000820485 -8.50148e-08)
(-0.00621762 -0.000758329 3.64412e-07)
(-0.0054526 0.000134827 -1.07869e-09)
(-0.00541293 7.19187e-05 -1.1509e-09)
(-0.00548813 0.000272449 3.549e-08)
(-0.00704843 -0.000922902 -9.81765e-08)
(-0.00434134 -4.56405e-05 -1.1912e-06)
(-0.00693005 -0.00090743 -7.25654e-09)
(-0.00423203 -4.39695e-05 1.12744e-06)
(-0.00596718 -0.000781399 -6.25119e-09)
(-0.00547228 -5.65968e-05 -1.45325e-06)
(-0.00596416 -0.000781004 6.24803e-09)
(-0.00546957 -5.65688e-05 1.45253e-06)
(-0.00596368 -0.000780941 -6.24753e-09)
(-0.00596356 -0.000780925 -6.2474e-09)
(-0.00546907 -5.65636e-05 -1.4524e-06)
(-0.00596356 -0.000780925 6.2474e-09)
(-0.00546907 -5.65636e-05 1.4524e-06)
(-0.00596356 -0.000780925 -6.2474e-09)
(-0.00546907 -5.65636e-05 -1.4524e-06)
(-0.00596356 -0.000780925 6.2474e-09)
(-0.00546907 -5.65636e-05 1.4524e-06)
(-0.00596356 -0.000780925 -6.2474e-09)
(-0.00596356 -0.000780925 -6.2474e-09)
(-0.00546907 -5.65636e-05 -1.4524e-06)
(-0.00596356 -0.000780925 6.2474e-09)
(-0.00546907 -5.65636e-05 1.4524e-06)
(-0.00596356 -0.000780925 -6.2474e-09)
(-0.00546907 -5.65636e-05 -1.4524e-06)
(-0.00596356 -0.000780925 6.2474e-09)
(-0.00546907 -5.65636e-05 1.4524e-06)
(-0.00596356 -0.000780925 -6.2474e-09)
(-0.00596356 -0.000780925 -6.2474e-09)
(-0.00546907 -5.65636e-05 -1.4524e-06)
(-0.00596356 -0.000780925 6.2474e-09)
(-0.00546907 -5.65636e-05 1.4524e-06)
(-0.00596356 -0.000780925 -6.2474e-09)
(-0.00546907 -5.65636e-05 -1.4524e-06)
(-0.00596356 -0.000780925 6.2474e-09)
(-0.00546907 -5.65636e-05 1.4524e-06)
(-0.00596356 -0.000780925 -6.2474e-09)
(-0.00596356 -0.000780925 -6.2474e-09)
(-0.00546907 -5.65636e-05 -1.4524e-06)
(-0.00596356 -0.000780925 6.2474e-09)
(-0.00546907 -5.65636e-05 1.4524e-06)
(-0.00596356 -0.000780925 -6.2474e-09)
(-0.00546907 -5.65636e-05 -1.4524e-06)
(-0.00596356 -0.000780925 6.2474e-09)
(-0.00546907 -5.65636e-05 1.4524e-06)
(-0.00596356 -0.000780925 -6.2474e-09)
(-0.00596356 -0.000780925 -6.2474e-09)
(-0.00546907 -5.65636e-05 -1.4524e-06)
(-0.00596356 -0.000780925 6.2474e-09)
(-0.00546907 -5.65636e-05 1.4524e-06)
(-0.00596356 -0.000780925 -6.2474e-09)
(-0.00546907 -5.65636e-05 -1.4524e-06)
(-0.00596356 -0.000780925 6.2474e-09)
(-0.00546907 -5.65636e-05 1.4524e-06)
(-0.00596356 -0.000780925 -6.2474e-09)
(-0.00596356 -0.000780925 -6.2474e-09)
(-0.00546907 -5.65636e-05 -1.4524e-06)
(-0.00596356 -0.000780925 6.2474e-09)
(-0.00546907 -5.65636e-05 1.4524e-06)
(-0.00596356 -0.000780925 -6.2474e-09)
(-0.00546907 -5.65636e-05 -1.4524e-06)
(-0.00596356 -0.000780925 6.2474e-09)
(-0.00546907 -5.65636e-05 1.4524e-06)
(-0.00596356 -0.000780925 -6.2474e-09)
(-0.00596356 -0.000780925 -6.2474e-09)
(-0.00546907 -5.65636e-05 -1.4524e-06)
(-0.00596356 -0.000780925 6.2474e-09)
(-0.00546907 -5.65636e-05 1.4524e-06)
(-0.00596356 -0.000780925 -6.2474e-09)
(-0.00546907 -5.65636e-05 -1.4524e-06)
(-0.00596356 -0.000780925 6.2474e-09)
(-0.00546907 -5.65636e-05 1.4524e-06)
(-0.00596356 -0.000780925 -6.2474e-09)
(-0.00596416 -0.000781004 -6.24803e-09)
(-0.00546957 -5.65688e-05 -1.45253e-06)
(-0.00596718 -0.000781399 6.25119e-09)
(-0.00547228 -5.65968e-05 1.45325e-06)
(-0.00691771 -0.000905815 7.24362e-09)
(-0.00422958 -4.39452e-05 -1.12681e-06)
(-0.00703303 -0.000920887 9.06017e-08)
(-0.00433842 -4.56085e-05 1.19045e-06)
(-0.00698107 -0.000913955 3.74067e-07)
(-0.00610915 -0.00079773 2.74028e-07)
(-0.00594626 1.27453e-05 -4.44243e-10)
(-0.00603319 -0.000787739 -1.26038e-08)
(-0.00570621 1.21811e-05 -3.89765e-10)
(-0.00550953 -6.74899e-05 -0)
(-0.00621803 -0.000406469 -2.53227e-08)
(-0.00835739 -7.33081e-05 -2.40862e-08)
(-0.00666882 0.000101751 5.3978e-06)
(-0.004819 0.000121743 -6.44905e-08)
(-0.00630601 -0.000443855 8.81826e-08)
(-0.0062411 0.000188267 -1.98467e-08)
(-0.00557299 0.000141185 -1.12916e-09)
(-0.00545311 0.000134866 2.15802e-09)
(-0.00541782 7.19786e-05 2.87983e-09)
(-0.00602003 -0.000640324 -2.03073e-07)
(-0.00655479 -0.000697393 5.15396e-07)
(-0.00287087 1.9129e-05 -6.6056e-21)
(-0.00283822 -1.9887e-05 -0)
(-0.00270716 1.80381e-05 5.52595e-23)
(-0.00270632 -1.89629e-05 -0)
(-0.00285934 -9.88196e-06 2.48374e-10)
(-0.00339663 2.93004e-05 -2.25853e-09)
(-0.00270771 -9.3428e-06 -0)
(-0.00273474 2.35663e-05 -1.707e-11)
(-0.00340759 2.92924e-05 7.05381e-10)
(-0.00273701 2.35209e-05 -3.15477e-11)
(-0.00280654 0.000340834 1.98822e-05)
(-0.00316043 0.000393877 1.56958e-08)