/*--------------------------------*- C++ -*----------------------------------*\
  =========                 |
  \\      /  F ield         | OpenFOAM: The Open Source CFD Toolbox
   \\    /   O peration     | Website:  https://openfoam.org
    \\  /    A nd           | Version:  10
     \\/     M anipulation  |
\*---------------------------------------------------------------------------*/
FoamFile
{
    format      ascii;
    class       volScalarField;
    location    "2000";
    object      k;
}
// * * * * * * * * * * * * * * * * * * * * * * * * * * * * * * * * * * * * * //

dimensions      [0 2 -2 0 0 0 0];

internalField   nonuniform List<scalar> 
55398
(
0.234636
0.211929
0.191361
0.190585
0.187457
0.464689
0.229001
0.208892
0.192356
0.178443
0.166462
0.157686
0.185839
0.412699
3.50265
4.37217
3.57193
2.99828
2.52544
1.93868
0.219674
0.202279
0.187551
0.175113
0.165292
0.160625
0.178589
0.242589
5.32973
2.45081
1.4818
0.970425
0.706755
0.526093
0.412078
0.219678
0.202406
0.187719
0.175322
0.165492
0.160216
0.169538
0.195859
0.287868
0.595547
1.5038
0.427584
0.233529
0.205316
0.184845
0.166852
0.153318
0.141679
0.219814
0.202635
0.187986
0.175577
0.165541
0.159238
0.161607
0.185809
0.217573
0.236161
0.247772
0.226257
0.202914
0.175585
0.162314
0.152221
0.14397
0.135084
0.12796
0.121293
0.219953
0.202868
0.188265
0.17583
0.165576
0.158206
0.156595
0.166826
0.175896
0.179475
0.182755
0.172867
0.163583
0.154489
0.144632
0.136966
0.130499
0.123514
0.117685
0.112346
0.220083
0.20309
0.188534
0.176019
0.165673
0.157519
0.153096
0.15556
0.158556
0.158939
0.156147
0.150266
0.143446
0.136456
0.129913
0.124042
0.118864
0.11338
0.108613
0.104052
0.220203
0.203294
0.188787
0.176344
0.165772
0.157186
0.151245
0.149105
0.148097
0.146109
0.142293
0.13725
0.131767
0.126047
0.120828
0.115921
0.111463
0.106867
0.102735
0.0987921
0.220174
0.203364
0.188956
0.176605
0.166
0.15721
0.150281
0.145758
0.142385
0.138873
0.134603
0.129913
0.124883
0.119887
0.115193
0.110877
0.106832
0.102754
0.0989547
0.0954117
0.22043
0.203663
0.189244
0.176821
0.166184
0.157232
0.14983
0.144112
0.139425
0.134947
0.130281
0.125546
0.120804
0.116176
0.111837
0.107761
0.103933
0.100142
0.0965947
0.0932021
0.220524
0.203827
0.189453
0.177045
0.166378
0.157328
0.14961
0.143234
0.137789
0.132732
0.127783
0.122961
0.118316
0.113864
0.109686
0.10572
0.102043
0.0984298
0.0950322
0.0917609
0.220609
0.203973
0.189639
0.177251
0.166569
0.1574
0.149544
0.142819
0.136939
0.13151
0.126335
0.121435
0.116817
0.112501
0.108345
0.104488
0.100862
0.097361
0.0940603
0.0908632
0.220688
0.204109
0.189813
0.177446
0.166762
0.157532
0.149563
0.142628
0.136497
0.13083
0.125507
0.120533
0.115893
0.111566
0.107508
0.103699
0.100112
0.0966765
0.0934343
0.0902853
0.220762
0.204237
0.189976
0.177633
0.166999
0.15768
0.149634
0.142573
0.136275
0.130482
0.125028
0.119958
0.115331
0.111009
0.10697
0.103195
0.0996316
0.0962396
0.0930384
0.0899243
0.220831
0.204358
0.190131
0.177809
0.167129
0.15784
0.14974
0.142616
0.136207
0.13032
0.124793
0.119725
0.115045
0.110723
0.106697
0.102938
0.0993882
0.0960219
0.0928456
0.0897538
0.220897
0.204472
0.190277
0.177975
0.167275
0.157998
0.14987
0.142698
0.136231
0.130285
0.124759
0.11966
0.114963
0.110637
0.106625
0.10286
0.0993151
0.0959603
0.0927969
0.0897202
0.22096
0.204581
0.190417
0.178134
0.167458
0.158158
0.15002
0.142826
0.136339
0.13037
0.124825
0.119714
0.115007
0.110674
0.106652
0.102891
0.0993443
0.0959909
0.0928311
0.0897595
0.221003
0.204654
0.190505
0.178229
0.167548
0.158241
0.150088
0.14289
0.136386
0.130417
0.124862
0.119755
0.115046
0.11071
0.10669
0.10292
0.0993656
0.0960066
0.0928421
0.08977
0.234673
0.212883
0.195373
0.183144
0.210084
0.295646
0.228984
0.208888
0.192394
0.178398
0.166423
0.158608
0.20351
0.478196
3.84766
4.12065
3.54334
3.57714
3.19198
2.66641
0.219617
0.202231
0.187567
0.175122
0.165328
0.161084
0.184896
0.282029
5.9327
2.63447
1.75277
1.21824
0.722183
0.672061
0.507622
0.219694
0.202418
0.187734
0.175338
0.165552
0.160317
0.171378
0.203141
0.300959
0.342841
1.02312
0.354299
0.287533
0.244674
0.216798
0.192548
0.17571
0.161069
0.219834
0.20265
0.188002
0.175592
0.165555
0.159249
0.161967
0.186663
0.220583
0.234669
0.236359
0.230087
0.195822
0.17998
0.165782
0.154711
0.146039
0.136828
0.129263
0.122371
0.219973
0.202885
0.188282
0.175845
0.165584
0.158198
0.156698
0.166217
0.176441
0.179826
0.177001
0.171007
0.162149
0.152038
0.142852
0.135328
0.129097
0.122488
0.116751
0.111403
0.220104
0.203107
0.188552
0.176102
0.165677
0.157583
0.153188
0.155301
0.15826
0.159136
0.15541
0.149648
0.14304
0.135597
0.1294
0.123621
0.118572
0.113357
0.108444
0.103953
0.220223
0.20331
0.188805
0.176354
0.165823
0.15721
0.151252
0.149013
0.147815
0.145962
0.14205
0.137263
0.131992
0.126113
0.120857
0.115925
0.111484
0.10696
0.102733
0.0987781
0.220332
0.203497
0.189038
0.176597
0.165994
0.157225
0.150295
0.145715
0.142211
0.138693
0.134397
0.129754
0.124796
0.119684
0.115043
0.11067
0.106642
0.102629
0.0988453
0.0952591
0.220432
0.203669
0.189256
0.176829
0.166183
0.157243
0.149817
0.144062
0.139281
0.134778
0.130093
0.125417
0.120723
0.116042
0.111736
0.107651
0.103835
0.10008
0.09653
0.0931315
0.220524
0.203827
0.189456
0.177048
0.166376
0.157349
0.149596
0.143201
0.13773
0.132644
0.127662
0.122846
0.118291
0.113802
0.109637
0.105688
0.101982
0.0983854
0.094986
0.0917095
0.220609
0.203973
0.189642
0.177254
0.16657
0.157405
0.149542
0.142805
0.136907
0.131467
0.126278
0.121377
0.116772
0.112495
0.108288
0.104437
0.100811
0.09732
0.0940199
0.0908209
0.220688
0.204109
0.189816
0.17745
0.166764
0.157537
0.149566
0.142625
0.136481
0.130819
0.125487
0.120511
0.115878
0.11155
0.107499
0.103676
0.100087
0.0966505
0.0934065
0.0902544
0.220761
0.204237
0.189979
0.177637
0.166989
0.157687
0.149638
0.142575
0.136275
0.130478
0.125022
0.119951
0.115321
0.111
0.10696
0.103184
0.0996212
0.0962272
0.0930268
0.0899136
0.220831
0.204357
0.190133
0.177813
0.167136
0.157845
0.149744
0.142618
0.136211
0.130324
0.124794
0.119724
0.115039
0.110716
0.106691
0.102934
0.0993858
0.0960167
0.0928423
0.0897528
0.220896
0.204471
0.19028
0.177979
0.1673
0.158001
0.149873
0.1427
0.136236
0.13029
0.124755
0.119656
0.114953
0.110628
0.106609
0.102856
0.0993133
0.0959551
0.0927937
0.089719
0.220959
0.20458
0.190419
0.178137
0.167462
0.158162
0.150023
0.142829
0.136344
0.130374
0.124829
0.119718
0.115003
0.11067
0.106649
0.102892
0.099347
0.0959899
0.0928316
0.0897624
0.221002
0.204653
0.190507
0.178231
0.16755
0.158242
0.150089
0.142891
0.136389
0.130419
0.124864
0.119757
0.115039
0.110703
0.10669
0.102918
0.0993658
0.0960031
0.0928401
0.08977
0.234693
0.212948
0.195507
0.180857
0.183817
0.244663
0.228981
0.208898
0.192414
0.178423
0.166448
0.158435
0.17354
0.460201
4.13757
5.02417
5.07926
5.48794
4.9675
4.16666
0.219594
0.202219
0.187534
0.175087
0.165307
0.160891
0.180803
0.279834
6.82421
4.74157
3.1709
2.19456
1.05138
0.992133
0.729276
0.219697
0.20242
0.187738
0.175336
0.165534
0.160228
0.170108
0.20464
0.298063
0.416984
1.54768
0.372124
0.308401
0.261589
0.228984
0.204977
0.186508
0.17154
0.219838
0.202652
0.188011
0.175599
0.16555
0.159171
0.161702
0.187443
0.22371
0.24311
0.248386
0.238447
0.198878
0.182451
0.168934
0.157555
0.148215
0.139191
0.131188
0.124201
0.219977
0.202886
0.188292
0.175855
0.165587
0.158151
0.156603
0.166572
0.177466
0.181399
0.17894
0.172872
0.163188
0.153148
0.14441
0.136719
0.130082
0.123575
0.11757
0.112175
0.220107
0.203108
0.188561
0.176112
0.165682
0.1576
0.153186
0.155355
0.158732
0.159757
0.156098
0.150504
0.144073
0.136259
0.129916
0.124067
0.118789
0.113685
0.108628
0.104137
0.220226
0.203311
0.188814
0.176366
0.16583
0.157336
0.151288
0.149
0.147978
0.146167
0.142252
0.137552
0.132343
0.126359
0.121085
0.116108
0.111523
0.107069
0.102763
0.0988172
0.220335
0.203499
0.189049
0.17661
0.166007
0.157245
0.150314
0.145691
0.142235
0.138735
0.134424
0.129754
0.124922
0.119754
0.115106
0.110714
0.106618
0.102649
0.0988307
0.0952571
0.220435
0.20367
0.189265
0.176842
0.166195
0.157258
0.149845
0.144066
0.139287
0.134788
0.130088
0.125358
0.12077
0.116055
0.111755
0.107667
0.103819
0.100092
0.0965221
0.0931362
0.220527
0.203828
0.189465
0.177059
0.166385
0.15732
0.149634
0.143237
0.137742
0.132655
0.127657
0.122762
0.118255
0.113748
0.109596
0.105651
0.101932
0.0983542
0.0949486
0.0916828
0.220612
0.203974
0.18965
0.177264
0.166575
0.157428
0.149568
0.142819
0.136917
0.131478
0.126277
0.121357
0.116776
0.112424
0.108289
0.104437
0.100803
0.097319
0.0940141
0.0908224
0.22069
0.20411
0.189824
0.177459
0.166771
0.157561
0.149586
0.142632
0.136485
0.130825
0.125484
0.120497
0.115875
0.111531
0.107488
0.103669
0.100077
0.096644
0.0933982
0.0902515
0.220764
0.204238
0.189987
0.177646
0.166981
0.157712
0.149659
0.142581
0.136278
0.130482
0.125018
0.119975
0.115316
0.111027
0.106943
0.103172
0.0996103
0.0962155
0.0930143
0.0899035
0.220834
0.204359
0.190141
0.177823
0.16716
0.157865
0.149762
0.142625
0.136214
0.130326
0.124793
0.119722
0.115036
0.110712
0.106681
0.102927
0.0993811
0.0960076
0.0928322
0.0897425
0.220899
0.204473
0.190287
0.177988
0.167318
0.158018
0.149888
0.142704
0.136239
0.130291
0.124758
0.119658
0.114952
0.110626
0.106602
0.102853
0.0993133
0.0959509
0.09279
0.0897153
0.220962
0.204582
0.190426
0.178145
0.167477
0.158176
0.150036
0.142835
0.136349
0.130379
0.124832
0.119721
0.115001
0.110667
0.106641
0.10289
0.0993485
0.0959875
0.0928302
0.0897602
0.221005
0.204654
0.190514
0.178239
0.167561
0.158252
0.150096
0.142892
0.136389
0.130418
0.124863
0.119756
0.115034
0.110698
0.106689
0.102913
0.0993649
0.0959982
0.0928369
0.0897657
0.234694
0.21295
0.195512
0.180846
0.183768
0.24469
0.22898
0.208905
0.192423
0.178427
0.166449
0.158472
0.173033
0.458305
5.34572
7.09135
7.24512
7.26165
6.80917
5.4864
0.219593
0.202219
0.187532
0.175083
0.165305
0.1609
0.180537
0.279602
7.41001
5.58446
4.06223
2.9578
1.47884
1.42683
1.08261
0.219697
0.20242
0.187737
0.175333
0.16553
0.160217
0.170017
0.204245
0.297327
0.412247
1.68346
0.379443
0.315863
0.268619
0.233498
0.212898
0.197441
0.183332
0.219838
0.202651
0.18801
0.175596
0.165546
0.159166
0.161705
0.187287
0.223359
0.242514
0.247666
0.235889
0.197282
0.182768
0.169476
0.157956
0.14809
0.139319
0.131449
0.124403
0.219976
0.202885
0.18829
0.175852
0.165584
0.158152
0.15662
0.166568
0.177321
0.181104
0.178619
0.172559
0.162161
0.152871
0.144283
0.136593
0.129709
0.123368
0.117482
0.11207
0.220106
0.203106
0.18856
0.17611
0.165681
0.15761
0.153209
0.1554
0.158746
0.159714
0.156052
0.150349
0.143443
0.136045
0.129773
0.123919
0.11849
0.113361
0.108527
0.10402
0.220225
0.203311
0.188813
0.176364
0.165829
0.157341
0.151302
0.14904
0.148037
0.146209
0.142283
0.137536
0.132002
0.126227
0.120985
0.116001
0.111323
0.106873
0.102668
0.0987128
0.220335
0.203498
0.189048
0.176609
0.166005
0.157245
0.15032
0.145716
0.142285
0.138781
0.134466
0.129769
0.124871
0.119678
0.115047
0.110648
0.106501
0.102531
0.0987631
0.0951825
0.220435
0.20367
0.189264
0.17684
0.166193
0.157256
0.149845
0.144075
0.139312
0.134815
0.130111
0.125308
0.120731
0.116025
0.11173
0.107634
0.103753
0.100024
0.0964815
0.0930903
0.220527
0.203828
0.189464
0.177059
0.166384
0.157319
0.149631
0.143237
0.137748
0.132662
0.127662
0.122781
0.118232
0.113726
0.109581
0.105634
0.101899
0.0983206
0.0949282
0.0916591
0.220611
0.203974
0.18965
0.177264
0.166575
0.157428
0.149568
0.142819
0.136918
0.131478
0.126276
0.121356
0.116758
0.112351
0.108286
0.104432
0.100789
0.0973045
0.0940053
0.0908103
0.22069
0.20411
0.189823
0.177459
0.166771
0.157561
0.149587
0.142633
0.136487
0.130825
0.125484
0.120498
0.115864
0.111505
0.107469
0.103663
0.100068
0.0966364
0.0933933
0.0902461
0.220764
0.204238
0.189987
0.177646
0.166982
0.157713
0.149661
0.142583
0.136281
0.130485
0.12502
0.119976
0.115312
0.111013
0.106937
0.103172
0.0996124
0.0962196
0.0930187
0.0899087
0.220833
0.204359
0.190141
0.177823
0.167162
0.157866
0.149763
0.142627
0.136217
0.13033
0.124797
0.119725
0.115039
0.11071
0.106679
0.102929
0.0993863
0.0960143
0.092837
0.0897482
0.220899
0.204473
0.190287
0.177988
0.167319
0.158019
0.149888
0.142706
0.136241
0.130293
0.124763
0.119662
0.114958
0.110629
0.106601
0.102855
0.0993187
0.0959573
0.0927932
0.0897194
0.220962
0.204582
0.190426
0.178145
0.167477
0.158176
0.150037
0.142836
0.13635
0.130381
0.124834
0.119722
0.115006
0.110671
0.106638
0.102891
0.099353
0.0959927
0.0928322
0.089763
0.221005
0.204654
0.190514
0.178239
0.167561
0.158253
0.150097
0.142893
0.136389
0.130418
0.124863
0.119756
0.115039
0.110706
0.106693
0.102915
0.0993712
0.0960056
0.0928414
0.0897716
0.234694
0.21295
0.195513
0.180846
0.183771
0.244807
0.22898
0.208906
0.192425
0.178428
0.166451
0.158484
0.173131
0.4585
5.23976
8.12484
8.50455
8.85803
8.11046
6.64719
0.219593
0.202219
0.187532
0.175083
0.165306
0.160908
0.180592
0.279645
7.23454
7.79224
6.16993
4.78179
2.42254
2.32291
1.77895
0.219697
0.202419
0.187736
0.175332
0.165529
0.160219
0.170042
0.204342
0.29743
0.41427
1.66812
0.387414
0.325373
0.278402
0.2435
0.229141
0.220339
0.209122
0.219837
0.202651
0.188009
0.175594
0.165545
0.159167
0.161712
0.187391
0.223507
0.242726
0.247858
0.235974
0.197609
0.183039
0.169637
0.158064
0.148173
0.139425
0.131595
0.124594
0.219975
0.202884
0.188289
0.17585
0.165584
0.158152
0.15662
0.166614
0.177422
0.1812
0.178657
0.172541
0.162059
0.152707
0.144088
0.136388
0.129511
0.123191
0.117327
0.111932
0.220105
0.203105
0.188558
0.176108
0.16568
0.157611
0.153206
0.155412
0.158787
0.159756
0.156085
0.150233
0.142759
0.136006
0.129677
0.123805
0.118375
0.113257
0.108441
0.103948
0.220225
0.20331
0.188812
0.176363
0.165828
0.157341
0.1513
0.149037
0.148043
0.146203
0.14228
0.137527
0.131674
0.126169
0.120911
0.115932
0.111263
0.106826
0.102635
0.0986873
0.220334
0.203497
0.189047
0.176608
0.166004
0.157246
0.15032
0.145712
0.142281
0.138762
0.134455
0.129745
0.124778
0.119617
0.114992
0.110601
0.106461
0.102498
0.0987362
0.0951598
0.220434
0.203669
0.189264
0.17684
0.166192
0.157257
0.149846
0.144075
0.139313
0.134805
0.130101
0.12529
0.12066
0.115998
0.111701
0.107604
0.103722
0.0999939
0.0964532
0.0930632
0.220526
0.203827
0.189464
0.177058
0.166383
0.157318
0.149632
0.143238
0.137751
0.132658
0.127658
0.122773
0.118193
0.113707
0.109557
0.105608
0.101872
0.098295
0.0949037
0.0916368
0.220611
0.203974
0.18965
0.177264
0.166574
0.157427
0.149568
0.142819
0.136921
0.131477
0.126276
0.121353
0.116737
0.112339
0.108272
0.104418
0.100775
0.0972902
0.0939911
0.0907969
0.22069
0.20411
0.189823
0.177459
0.166771
0.157561
0.149587
0.142632
0.136487
0.130824
0.125484
0.120496
0.115854
0.111494
0.10746
0.103654
0.100059
0.0966259
0.0933819
0.0902349
0.220764
0.204238
0.189986
0.177646
0.166982
0.157712
0.14966
0.142582
0.13628
0.130482
0.125021
0.119977
0.115308
0.110964
0.106937
0.10317
0.0996087
0.0962148
0.0930128
0.0899024
0.220833
0.204358
0.190141
0.177823
0.167161
0.157865
0.149763
0.142624
0.136216
0.130329
0.124796
0.119723
0.115036
0.110699
0.106673
0.102923
0.0993797
0.0960077
0.0928302
0.089742
0.220899
0.204473
0.190287
0.177988
0.167319
0.158019
0.149888
0.142705
0.136241
0.130293
0.124755
0.119656
0.114954
0.110619
0.106595
0.10285
0.0993136
0.0959525
0.0927885
0.0897146
0.220962
0.204582
0.190426
0.178145
0.167477
0.158176
0.150036
0.142835
0.13635
0.13038
0.124835
0.119723
0.11501
0.11067
0.106638
0.102891
0.0993528
0.0959919
0.0928307
0.0897612
0.221005
0.204654
0.190514
0.178239
0.167561
0.158252
0.150097
0.142893
0.136389
0.130418
0.124863
0.119756
0.115042
0.110714
0.106691
0.102912
0.099368
0.0960018
0.0928367
0.0897663
0.234694
0.21295
0.195514
0.180846
0.183768
0.244872
0.22898
0.208906
0.192426
0.178427
0.166451
0.158489
0.173166
0.458328
4.21982
7.54521
8.54902
10.1557
9.06158
8.1882
0.219593
0.202219
0.187532
0.175084
0.165307
0.160917
0.180599
0.279613
6.07665
10.0405
8.97975
7.63862
3.9464
3.77264
2.88865
0.219697
0.202419
0.187736
0.175332
0.16553
0.160223
0.17005
0.204339
0.297379
0.412781
1.6673
0.401275
0.341286
0.295182
0.261763
0.260013
0.264287
0.258537
0.219837
0.20265
0.188008
0.175593
0.165545
0.159168
0.161717
0.187381
0.223502
0.2427
0.247803
0.235938
0.197777
0.183244
0.169836
0.158331
0.148485
0.139811
0.132093
0.125204
0.219975
0.202883
0.188288
0.175849
0.165583
0.158153
0.156621
0.166611
0.177409
0.181163
0.178589
0.172493
0.162013
0.152635
0.143999
0.136286
0.129418
0.123112
0.117261
0.111876
0.220105
0.203105
0.188558
0.176107
0.165679
0.15761
0.153206
0.155408
0.158778
0.159733
0.156044
0.150176
0.142708
0.135916
0.129564
0.123682
0.118254
0.113144
0.108335
0.103846
0.220225
0.203309
0.188811
0.176361
0.165827
0.157341
0.151299
0.149033
0.148034
0.146194
0.142256
0.137496
0.131627
0.126096
0.120823
0.115837
0.111166
0.106732
0.102543
0.0985974
0.220334
0.203497
0.189046
0.176607
0.166004
0.157245
0.150319
0.14571
0.142276
0.138757
0.134442
0.12972
0.124742
0.119575
0.114943
0.110545
0.106404
0.102442
0.0986819
0.0951065
0.220434
0.203669
0.189263
0.176839
0.166192
0.157256
0.149845
0.144074
0.13931
0.134801
0.130094
0.12528
0.120642
0.115971
0.11167
0.107571
0.10369
0.0999634
0.0964249
0.0930361
0.220526
0.203827
0.189463
0.177057
0.166382
0.157318
0.149632
0.143237
0.137749
0.132656
0.127654
0.122766
0.118181
0.11369
0.10954
0.105589
0.101854
0.0982772
0.0948871
0.0916193
0.220611
0.203974
0.189649
0.177263
0.166574
0.157427
0.149567
0.142818
0.13692
0.131475
0.126273
0.121349
0.11673
0.11233
0.108263
0.104407
0.100764
0.0972797
0.0939813
0.0907866
0.22069
0.20411
0.189823
0.177459
0.166771
0.157561
0.149587
0.142632
0.136487
0.130824
0.125483
0.120494
0.11585
0.111487
0.107454
0.103647
0.100052
0.0966194
0.0933761
0.0902286
0.220764
0.204238
0.189986
0.177646
0.166982
0.157712
0.14966
0.142582
0.13628
0.130483
0.125019
0.119974
0.115304
0.110956
0.106932
0.103164
0.099603
0.096209
0.0930072
0.0898963
0.220833
0.204358
0.19014
0.177822
0.167161
0.157865
0.149762
0.142626
0.136217
0.130328
0.124795
0.119723
0.115035
0.110693
0.106671
0.102921
0.0993776
0.0960052
0.0928276
0.0897388
0.220899
0.204473
0.190287
0.177988
0.167319
0.158019
0.149888
0.142705
0.13624
0.130293
0.124762
0.11966
0.114957
0.110616
0.106597
0.102851
0.0993148
0.0959533
0.0927891
0.0897153
0.220962
0.204582
0.190426
0.178145
0.167477
0.158176
0.150036
0.142835
0.13635
0.13038
0.124833
0.119721
0.115009
0.110661
0.106636
0.102888
0.0993498
0.095989
0.0928282
0.0897586
0.221005
0.204654
0.190514
0.178239
0.167561
0.158252
0.150097
0.142893
0.136389
0.130418
0.124864
0.119756
0.115043
0.110717
0.106691
0.102912
0.0993682
0.0960023
0.0928378
0.089768
0.234693
0.212949
0.195513
0.180845
0.183766
0.244908
0.22898
0.208906
0.192426
0.178427
0.166451
0.158492
0.173179
0.458289
3.84393
6.34803
7.83445
10.5277
8.89523
9.28864
0.219593
0.202219
0.187532
0.175084
0.165307
0.160919
0.180607
0.279581
5.52092
12.2781
11.8475
10.7222
5.45641
5.18156
3.99246
0.219697
0.202419
0.187736
0.175332
0.16553
0.160225
0.170053
0.204343
0.297317
0.412964
1.67944
0.413219
0.355791
0.312065
0.281096
0.295469
0.31549
0.316224
0.219837
0.20265
0.188008
0.175593
0.165545
0.159169
0.161718
0.187384
0.22348
0.242661
0.247731
0.235936
0.197868
0.183344
0.169932
0.158472
0.148688
0.140105
0.132516
0.125741
0.219975
0.202883
0.188287
0.175848
0.165583
0.158153
0.156621
0.166611
0.177407
0.181144
0.178549
0.172469
0.161976
0.152572
0.143909
0.136173
0.129297
0.123
0.117156
0.111783
0.220105
0.203105
0.188557
0.176107
0.165679
0.157611
0.153207
0.155409
0.158776
0.159726
0.156025
0.150144
0.142652
0.135842
0.129476
0.123587
0.118162
0.113059
0.108257
0.103775
0.220224
0.203309
0.188811
0.176361
0.165827
0.157341
0.1513
0.149034
0.148032
0.146189
0.142243
0.137477
0.1316
0.12605
0.120768
0.11578
0.111112
0.106681
0.102496
0.0985545
0.220334
0.203497
0.189046
0.176606
0.166003
0.157245
0.150319
0.145711
0.142274
0.138754
0.134434
0.129703
0.12472
0.119544
0.114908
0.110508
0.106367
0.102406
0.0986475
0.0950737
0.220434
0.203669
0.189263
0.176839
0.166191
0.157256
0.149845
0.144074
0.139309
0.134799
0.130089
0.125273
0.12063
0.115954
0.11165
0.107548
0.103667
0.0999403
0.0964019
0.093014
0.220526
0.203827
0.189463
0.177057
0.166382
0.157318
0.149632
0.143237
0.137749
0.132655
0.127652
0.122761
0.118173
0.113678
0.109526
0.105574
0.101838
0.0982614
0.094871
0.0916038
0.220611
0.203974
0.189649
0.177263
0.166574
0.157427
0.149567
0.142818
0.13692
0.131475
0.126272
0.121347
0.116726
0.112322
0.108255
0.104398
0.100754
0.0972698
0.0939711
0.0907767
0.22069
0.20411
0.189823
0.177458
0.166771
0.157561
0.149587
0.142632
0.136487
0.130824
0.125482
0.120493
0.115848
0.111482
0.107449
0.103642
0.100046
0.0966135
0.0933697
0.0902224
0.220764
0.204238
0.189986
0.177646
0.166982
0.157712
0.14966
0.142582
0.13628
0.130482
0.12502
0.119974
0.115304
0.110954
0.10693
0.103162
0.0995998
0.0962056
0.0930035
0.0898927
0.220833
0.204358
0.19014
0.177822
0.167161
0.157865
0.149762
0.142625
0.136216
0.130328
0.124795
0.119723
0.115034
0.110689
0.106669
0.102918
0.0993741
0.0960015
0.0928237
0.0897349
0.220899
0.204473
0.190287
0.177987
0.167318
0.158018
0.149888
0.142704
0.13624
0.130292
0.124758
0.119657
0.114954
0.110611
0.106593
0.102847
0.0993108
0.0959494
0.0927852
0.0897112
0.220962
0.204581
0.190426
0.178145
0.167477
0.158176
0.150036
0.142835
0.13635
0.13038
0.124834
0.119722
0.115009
0.110658
0.106636
0.102889
0.0993502
0.0959893
0.0928283
0.0897587
0.221005
0.204654
0.190514
0.178239
0.167561
0.158252
0.150097
0.142893
0.136389
0.130418
0.124864
0.119756
0.115042
0.110719
0.10669
0.102911
0.0993668
0.0960008
0.0928359
0.0897658
0.234693
0.212949
0.195514
0.180845
0.183765
0.244933
0.22898
0.208906
0.192426
0.178427
0.166452
0.158494
0.173187
0.458421
4.22281
6.85541
8.27268
11.562
9.30088
10.4303
0.219593
0.202219
0.187532
0.175084
0.165308
0.160921
0.180607
0.279558
5.76183
12.3638
11.7373
10.7052
4.88465
4.87847
3.78007
0.219696
0.202419
0.187736
0.175331
0.16553
0.160225
0.170054
0.204341
0.297319
0.414348
1.68698
0.410537
0.352119
0.307199
0.274653
0.282608
0.298177
0.300326
0.219837
0.20265
0.188008
0.175592
0.165545
0.159169
0.161719
0.187385
0.22348
0.242679
0.24774
0.235977
0.19788
0.183366
0.169952
0.158457
0.148635
0.140033
0.132411
0.12562
0.219975
0.202883
0.188287
0.175848
0.165583
0.158153
0.156622
0.166612
0.177406
0.181139
0.178533
0.172472
0.161993
0.152594
0.143929
0.136188
0.129311
0.123014
0.117172
0.1118
0.220105
0.203104
0.188557
0.176106
0.165678
0.157611
0.153207
0.155409
0.158775
0.15972
0.156017
0.150133
0.14265
0.135843
0.129476
0.123585
0.118159
0.113055
0.108252
0.103768
0.220224
0.203309
0.18881
0.176361
0.165827
0.157341
0.1513
0.149033
0.14803
0.146185
0.142236
0.137467
0.13159
0.126041
0.120758
0.115767
0.111098
0.106666
0.102481
0.0985378
0.220334
0.203496
0.189046
0.176606
0.166003
0.157245
0.150319
0.14571
0.142273
0.138751
0.134428
0.129692
0.124706
0.11953
0.114891
0.11049
0.106348
0.102388
0.0986294
0.095055
0.220434
0.203669
0.189263
0.176838
0.166191
0.157256
0.149845
0.144074
0.139308
0.134797
0.130085
0.125267
0.120622
0.115943
0.111637
0.107534
0.103652
0.0999256
0.0963875
0.0929995
0.220526
0.203827
0.189463
0.177057
0.166382
0.157318
0.149632
0.143237
0.137749
0.132654
0.127649
0.122757
0.118167
0.11367
0.109517
0.105564
0.101828
0.098251
0.0948609
0.0915933
0.220611
0.203973
0.189649
0.177263
0.166574
0.157427
0.149567
0.142818
0.136919
0.131474
0.126271
0.121344
0.116722
0.112317
0.108248
0.104391
0.100747
0.0972625
0.093964
0.0907692
0.22069
0.20411
0.189823
0.177458
0.16677
0.157561
0.149586
0.142632
0.136487
0.130823
0.125482
0.120492
0.115846
0.111479
0.107445
0.103637
0.100041
0.0966083
0.0933646
0.0902169
0.220764
0.204238
0.189986
0.177646
0.166982
0.157712
0.14966
0.142582
0.13628
0.130483
0.125018
0.119973
0.115302
0.110951
0.106926
0.103158
0.099596
0.0962017
0.0929998
0.0898886
0.220833
0.204358
0.19014
0.177822
0.167161
0.157865
0.149762
0.142626
0.136216
0.130328
0.124795
0.119722
0.115033
0.110688
0.106668
0.102917
0.0993729
0.0960003
0.0928225
0.0897335
0.220899
0.204473
0.190287
0.177987
0.167318
0.158018
0.149888
0.142705
0.13624
0.130292
0.124762
0.11966
0.114957
0.110613
0.106594
0.102848
0.0993114
0.0959497
0.0927853
0.0897112
0.220961
0.204581
0.190426
0.178145
0.167477
0.158176
0.150036
0.142835
0.136349
0.13038
0.124834
0.119721
0.115008
0.110657
0.106635
0.102887
0.0993477
0.0959867
0.0928255
0.0897557
0.221005
0.204654
0.190514
0.178239
0.167561
0.158252
0.150097
0.142893
0.136389
0.130418
0.124864
0.119756
0.115042
0.110719
0.106689
0.10291
0.099366
0.0959999
0.092835
0.0897649
0.234693
0.212949
0.195514
0.180845
0.183766
0.24495
0.22898
0.208906
0.192426
0.178427
0.166452
0.158495
0.173192
0.458461
4.47139
8.08289
9.87552
12.1821
11.2776
10.894
0.219593
0.202219
0.187532
0.175084
0.165307
0.16092
0.180607
0.279602
6.02977
9.60752
8.3651
7.19182
2.95596
3.11115
2.36157
0.219696
0.202419
0.187736
0.175332
0.165531
0.160226
0.170053
0.204339
0.297379
0.414824
1.68329
0.393908
0.3329
0.286304
0.251535
0.241188
0.237252
0.23023
0.219837
0.20265
0.188007
0.175592
0.165545
0.15917
0.161719
0.187401
0.223494
0.242688
0.247758
0.235997
0.197851
0.183345
0.169923
0.15833
0.148433
0.139743
0.131972
0.125041
0.219975
0.202883
0.188287
0.175848
0.165583
0.158154
0.156622
0.166618
0.17742
0.181153
0.178543
0.172488
0.162055
0.152687
0.144034
0.136296
0.12941
0.1231
0.117249
0.111868
0.220105
0.203104
0.188557
0.176106
0.165678
0.157611
0.153207
0.155411
0.158779
0.159724
0.156024
0.150147
0.142692
0.135901
0.12954
0.123645
0.118211
0.113098
0.108289
0.103799
0.220224
0.203309
0.18881
0.176361
0.165826
0.157341
0.1513
0.149034
0.148031
0.146184
0.142236
0.137465
0.131592
0.126056
0.120777
0.115785
0.111112
0.106677
0.102489
0.098543
0.220334
0.203496
0.189045
0.176606
0.166003
0.157245
0.150319
0.14571
0.142272
0.138749
0.134425
0.129687
0.124702
0.119528
0.11489
0.110489
0.106346
0.102385
0.0986264
0.0950513
0.220434
0.203668
0.189262
0.176838
0.166191
0.157255
0.149845
0.144074
0.139308
0.134796
0.130083
0.125264
0.120618
0.115939
0.111632
0.107529
0.103647
0.0999204
0.0963821
0.0929936
0.220526
0.203827
0.189463
0.177057
0.166382
0.157318
0.149632
0.143237
0.137748
0.132653
0.127648
0.122754
0.118163
0.113666
0.109512
0.105559
0.101823
0.0982459
0.0948557
0.091588
0.220611
0.203973
0.189649
0.177263
0.166574
0.157427
0.149567
0.142818
0.136919
0.131474
0.12627
0.121343
0.11672
0.112314
0.108245
0.104387
0.100743
0.0972585
0.0939599
0.0907651
0.22069
0.20411
0.189823
0.177458
0.16677
0.157561
0.149586
0.142632
0.136486
0.130823
0.125481
0.120491
0.115845
0.111478
0.107443
0.103635
0.100038
0.0966057
0.0933619
0.0902142
0.220764
0.204238
0.189986
0.177646
0.166982
0.157712
0.14966
0.142582
0.13628
0.130482
0.125019
0.119973
0.115302
0.11095
0.106925
0.103157
0.0995945
0.0962001
0.0929981
0.0898869
0.220833
0.204358
0.19014
0.177822
0.167161
0.157865
0.149762
0.142625
0.136216
0.130328
0.124795
0.119722
0.115033
0.110687
0.106667
0.102915
0.0993709
0.0959981
0.0928203
0.0897312
0.220899
0.204473
0.190287
0.177987
0.167318
0.158018
0.149888
0.142704
0.13624
0.130292
0.124759
0.119658
0.114954
0.11061
0.106592
0.102846
0.0993089
0.0959472
0.092783
0.0897088
0.220961
0.204581
0.190426
0.178145
0.167477
0.158176
0.150036
0.142835
0.13635
0.13038
0.124834
0.119722
0.115009
0.110657
0.106635
0.102887
0.0993479
0.0959868
0.0928257
0.089756
0.221005
0.204654
0.190514
0.178239
0.167561
0.158252
0.150097
0.142893
0.136389
0.130418
0.124864
0.119756
0.115042
0.110718
0.106689
0.10291
0.0993652
0.095999
0.0928342
0.089764
0.234693
0.212949
0.195514
0.180845
0.183766
0.24496
0.22898
0.208906
0.192426
0.178427
0.166452
0.158495
0.173193
0.458355
5.19061
8.52755
9.3958
9.76963
9.92027
8.53224
0.219593
0.202219
0.187532
0.175084
0.165308
0.160921
0.180606
0.279627
6.96054
5.74203
4.61272
3.74067
1.55586
1.66637
1.29282
0.219697
0.202419
0.187736
0.175332
0.165531
0.160226
0.170053
0.204345
0.297359
0.412752
1.66857
0.381987
0.319529
0.272678
0.237794
0.217932
0.203708
0.191223
0.219836
0.20265
0.188007
0.175592
0.165545
0.15917
0.161719
0.187384
0.22349
0.242598
0.247616
0.235897
0.197688
0.183199
0.169811
0.158196
0.148292
0.139564
0.131718
0.124712
0.219975
0.202883
0.188287
0.175848
0.165583
0.158154
0.156622
0.166612
0.177402
0.181128
0.178515
0.172481
0.162087
0.152746
0.144105
0.136371
0.129483
0.123163
0.117307
0.111918
0.220105
0.203104
0.188557
0.176106
0.165678
0.157611
0.153207
0.155409
0.158772
0.159712
0.156015
0.150148
0.142704
0.135934
0.12959
0.123703
0.118267
0.11315
0.108336
0.103841
0.220224
0.203308
0.18881
0.176361
0.165826
0.157341
0.1513
0.149033
0.148029
0.146178
0.142232
0.137461
0.131595
0.126071
0.120798
0.115805
0.111129
0.106692
0.102502
0.0985543
0.220334
0.203496
0.189045
0.176606
0.166003
0.157245
0.150319
0.14571
0.142272
0.138747
0.134422
0.129683
0.1247
0.119529
0.114894
0.110493
0.10635
0.102389
0.0986303
0.0950546
0.220434
0.203668
0.189262
0.176838
0.166191
0.157255
0.149845
0.144074
0.139307
0.134795
0.130081
0.125262
0.120616
0.115938
0.111632
0.107529
0.103647
0.0999203
0.0963819
0.0929929
0.220526
0.203827
0.189463
0.177057
0.166382
0.157318
0.149632
0.143237
0.137748
0.132652
0.127647
0.122753
0.118161
0.113664
0.109511
0.105557
0.101821
0.0982446
0.0948545
0.0915867
0.220611
0.203973
0.189649
0.177263
0.166574
0.157427
0.149567
0.142818
0.136919
0.131474
0.12627
0.121342
0.116719
0.112313
0.108243
0.104386
0.100742
0.0972571
0.0939585
0.0907635
0.22069
0.20411
0.189823
0.177458
0.16677
0.157561
0.149586
0.142632
0.136486
0.130823
0.125481
0.120491
0.115844
0.111476
0.107442
0.103633
0.100037
0.0966043
0.0933605
0.0902128
0.220764
0.204238
0.189986
0.177646
0.166982
0.157712
0.14966
0.142582
0.13628
0.130483
0.125018
0.119972
0.115301
0.110949
0.106924
0.103155
0.0995932
0.0961988
0.0929968
0.0898855
0.220833
0.204358
0.19014
0.177822
0.167161
0.157865
0.149762
0.142626
0.136216
0.130328
0.124795
0.119722
0.115033
0.110687
0.106666
0.102915
0.0993707
0.095998
0.0928202
0.0897311
0.220899
0.204473
0.190287
0.177987
0.167318