/*--------------------------------*- C++ -*----------------------------------*\
  =========                 |
  \\      /  F ield         | OpenFOAM: The Open Source CFD Toolbox
   \\    /   O peration     | Website:  https://openfoam.org
    \\  /    A nd           | Version:  10
     \\/     M anipulation  |
\*---------------------------------------------------------------------------*/
FoamFile
{
    format      ascii;
    class       volScalarField;
    location    "2000";
    object      nut;
}
// * * * * * * * * * * * * * * * * * * * * * * * * * * * * * * * * * * * * * //

dimensions      [0 2 -1 0 0 0 0];

internalField   nonuniform List<scalar> 
55398
(
0.133735
0.116642
0.108437
0.0516637
0.0421047
0.0475265
0.134521
0.133671
0.133049
0.131981
0.13003
0.123612
0.0855085
0.0656471
0.226803
0.363074
0.356816
0.358483
0.392652
0.401332
0.134113
0.13343
0.132937
0.132662
0.132875
0.132674
0.123008
0.103842
0.231505
0.339327
0.301587
0.267498
0.2443
0.222206
0.205232
0.134068
0.133385
0.132854
0.132572
0.132855
0.134222
0.134218
0.127558
0.0886325
0.0400855
0.12753
0.0964655
0.107639
0.110849
0.113124
0.115444
0.116822
0.118287
0.134041
0.133335
0.132764
0.132421
0.132545
0.133893
0.136569
0.140088
0.130153
0.11693
0.0992688
0.106352
0.112719
0.126765
0.129995
0.13181
0.1329
0.134146
0.13462
0.134952
0.134025
0.133302
0.132699
0.132289
0.132243
0.133119
0.135755
0.139767
0.14134
0.139746
0.138926
0.142715
0.142878
0.142785
0.142528
0.142328
0.142132
0.141585
0.141071
0.140494
0.134014
0.13328
0.132652
0.132185
0.132002
0.132471
0.134099
0.137616
0.140111
0.141185
0.142301
0.142519
0.14221
0.141718
0.141125
0.140617
0.140218
0.139467
0.138868
0.138199
0.134007
0.133262
0.132617
0.132108
0.131824
0.131978
0.132867
0.135086
0.13719
0.138544
0.139229
0.139301
0.138992
0.138427
0.137873
0.137363
0.136961
0.136282
0.135746
0.13516
0.133995
0.133244
0.132586
0.132049
0.131689
0.131629
0.132086
0.13327
0.134593
0.135546
0.135959
0.135968
0.135645
0.135163
0.134684
0.134293
0.133954
0.133414
0.132948
0.132491
0.133997
0.133239
0.132567
0.132003
0.13159
0.131399
0.131542
0.132112
0.132836
0.13333
0.133478
0.133371
0.133073
0.132683
0.1323
0.131968
0.131671
0.131233
0.130849
0.130442
0.133994
0.13323
0.132549
0.131967
0.131514
0.131237
0.131186
0.131385
0.131685
0.13184
0.131784
0.131574
0.131275
0.13093
0.130595
0.130284
0.130022
0.12966
0.129336
0.128976
0.133991
0.133223
0.132535
0.131937
0.131455
0.131117
0.130942
0.13092
0.130957
0.130898
0.130706
0.130426
0.130109
0.129795
0.129468
0.129182
0.12893
0.128617
0.128334
0.128001
0.133989
0.133218
0.132523
0.131914
0.13141
0.131029
0.130777
0.130624
0.130503
0.130305
0.130014
0.129677
0.129336
0.129018
0.128713
0.128436
0.128187
0.1279
0.12764
0.127325
0.133988
0.133214
0.132514
0.131897
0.131378
0.130965
0.130661
0.130428
0.130214
0.129935
0.129563
0.12918
0.128824
0.128497
0.128196
0.127922
0.127673
0.127403
0.127159
0.126858
0.133987
0.13321
0.132506
0.131883
0.131351
0.130917
0.130575
0.130301
0.130021
0.129689
0.129273
0.128869
0.128495
0.128163
0.127865
0.127593
0.127344
0.127086
0.126851
0.126561
0.133986
0.133208
0.132501
0.131873
0.13133
0.130882
0.130517
0.130209
0.129895
0.12953
0.129116
0.128698
0.128315
0.127978
0.12768
0.127407
0.127156
0.126902
0.126672
0.126389
0.133986
0.133207
0.132498
0.131865
0.131317
0.130858
0.13048
0.130154
0.129826
0.129448
0.129023
0.1286
0.128212
0.127872
0.127571
0.127295
0.127042
0.126787
0.126558
0.126278
0.13398
0.133194
0.132477
0.131835
0.131275
0.130803
0.130408
0.130071
0.129727
0.129345
0.12891
0.128489
0.1281
0.127757
0.127453
0.127173
0.126913
0.126653
0.126419
0.126136
0.134548
0.132224
0.127735
0.101739
0.0465319
0.0481692
0.134539
0.133697
0.133126
0.132525
0.12878
0.121626
0.0917464
0.0593602
0.355665
0.41788
0.526971
0.53328
0.588611
0.572408
0.134107
0.133426
0.132936
0.132676
0.132945
0.133415
0.122462
0.0956913
0.23629
0.362463
0.345911
0.31897
0.282269
0.280698
0.265858
0.134066
0.133382
0.132851
0.132571
0.132863
0.134416
0.133669
0.122599
0.0775772
0.0706018
0.0985437
0.120346
0.122562
0.124187
0.125153
0.12701
0.128362
0.129467
0.134041
0.133333
0.132761
0.132417
0.132541
0.133913
0.136217
0.138344
0.129982
0.119816
0.113802
0.116558
0.131012
0.13324
0.135159
0.136315
0.136987
0.137516
0.137673
0.137668
0.134025
0.133301
0.132697
0.132285
0.132239
0.133086
0.135613
0.138789
0.140773
0.140363
0.141717
0.142462
0.14257
0.142403
0.142176
0.141979
0.141834
0.141371
0.140888
0.140321
0.134015
0.133279
0.132651
0.132184
0.132
0.132428
0.134077
0.137237
0.139616
0.141094
0.142001
0.142191
0.141929
0.141322
0.140852
0.140396
0.140063
0.139432
0.138777
0.138132
0.134007
0.133263
0.132616
0.132107
0.131821
0.131963
0.13283
0.134946
0.13691
0.138319
0.138984
0.139182
0.138998
0.138364
0.13782
0.137303
0.136917
0.136297
0.135695
0.135103
0.134002
0.133249
0.132589
0.132048
0.131686
0.131619
0.132051
0.133195
0.134453
0.135389
0.135789
0.135823
0.135546
0.134995
0.134534
0.134111
0.13378
0.133292
0.132817
0.132336
0.133997
0.133239
0.132567
0.132002
0.131586
0.131389
0.131521
0.132064
0.132726
0.133201
0.13334
0.133266
0.133001
0.132576
0.132211
0.131865
0.131575
0.131171
0.13078
0.130362
0.133994
0.13323
0.132549
0.131966
0.131511
0.131229
0.131173
0.131361
0.131622
0.131765
0.131701
0.131521
0.131259
0.130886
0.130555
0.130241
0.129967
0.129623
0.129293
0.128923
0.133991
0.133223
0.132534
0.131937
0.131454
0.131114
0.130936
0.130907
0.130931
0.130861
0.130657
0.130375
0.130076
0.129765
0.129426
0.129141
0.128885
0.128583
0.128296
0.127958
0.133989
0.133218
0.132523
0.131914
0.131409
0.131028
0.130775
0.130619
0.130494
0.130292
0.129996
0.129659
0.129327
0.129008
0.128699
0.128417
0.128163
0.12788
0.127615
0.127295
0.133988
0.133213
0.132514
0.131897
0.131378
0.130964
0.130659
0.130426
0.130209
0.129928
0.129557
0.129173
0.128819
0.128492
0.128189
0.127913
0.127661
0.127394
0.127148
0.126845
0.133987
0.13321
0.132507
0.131883
0.131351
0.130917
0.130575
0.1303
0.130019
0.129687
0.129272
0.128867
0.128495
0.128162
0.127863
0.12759
0.127341
0.127083
0.126849
0.126557
0.133986
0.133208
0.132501
0.131873
0.131331
0.130882
0.130517
0.130209
0.129895
0.12953
0.129112
0.128693
0.128311
0.127974
0.127675
0.127403
0.127153
0.126898
0.126669
0.126386
0.133986
0.133207
0.132498
0.131865
0.131317
0.130858
0.13048
0.130154
0.129825
0.129447
0.129023
0.1286
0.128212
0.127872
0.12757
0.127295
0.127042
0.126787
0.126558
0.126278
0.13398
0.133194
0.132477
0.131835
0.131275
0.130803
0.130408
0.13007
0.129726
0.129344
0.128909
0.128487
0.128098
0.127755
0.127452
0.127171
0.126912
0.126651
0.126417
0.126134
0.134579
0.132656
0.129144
0.120786
0.0628982
0.0488376
0.134537
0.133701
0.133132
0.132658
0.130352
0.127365
0.103804
0.0912256
0.606577
0.755477
0.837713
0.812531
0.904248
0.791457
0.134106
0.133425
0.132935
0.132679
0.132973
0.134583
0.130614
0.116194
0.404225
0.614782
0.573819
0.523504
0.397914
0.400072
0.375436
0.134066
0.133382
0.132849
0.132568
0.132861
0.134694
0.13722
0.134139
0.0778758
0.0903122
0.142428
0.130828
0.132192
0.13364
0.134634
0.136732
0.138676
0.139933
0.134041
0.133333
0.13276
0.132414
0.132538
0.133925
0.137381
0.143217
0.143043
0.135718
0.130539
0.133791
0.141005
0.141979
0.142765
0.143299
0.143628
0.14358
0.143358
0.142977
0.134025
0.133301
0.132697
0.132283
0.132238
0.133041
0.135888
0.140859
0.144659
0.145665
0.147173
0.14815
0.147757
0.146987
0.146303
0.145704
0.145205
0.144468
0.143672
0.142893
0.134015
0.133279
0.132651
0.132183
0.131999
0.132389
0.134124
0.137889
0.141193
0.143373
0.144416
0.144613
0.144248
0.143269
0.142576
0.141935
0.141381
0.140689
0.139846
0.139115
0.134007
0.133263
0.132616
0.132107
0.131821
0.131931
0.132851
0.135104
0.137418
0.139089
0.13982
0.14005
0.139858
0.139087
0.138467
0.137872
0.137353
0.136741
0.136044
0.135425
0.134002
0.13325
0.132589
0.132049
0.131689
0.131615
0.132031
0.133197
0.134565
0.135584
0.136004
0.13604
0.13581
0.135209
0.134724
0.134273
0.133876
0.133412
0.132896
0.132412
0.133997
0.133239
0.132567
0.132003
0.131589
0.131394
0.131511
0.132051
0.132742
0.133239
0.133379
0.133292
0.13308
0.132632
0.132262
0.13191
0.131585
0.131204
0.130791
0.130377
0.133994
0.13323
0.132549
0.131966
0.131512
0.131233
0.13117
0.131352
0.131624
0.131771
0.131702
0.131476
0.13124
0.130861
0.130533
0.130219
0.129927
0.129599
0.12926
0.128894
0.133991
0.133223
0.132535
0.131937
0.131454
0.131114
0.130936
0.130909
0.130931
0.130863
0.130655
0.130358
0.130081
0.129747
0.129426
0.129139
0.128872
0.128578
0.128286
0.12795
0.133989
0.133218
0.132523
0.131914
0.13141
0.131027
0.130772
0.130618
0.130492
0.130291
0.129992
0.129645
0.129327
0.128995
0.128693
0.128411
0.12815
0.127871
0.127603
0.127285
0.133988
0.133214
0.132514
0.131897
0.131377
0.130964
0.130658
0.130425
0.130206
0.129926
0.129552
0.129166
0.128816
0.128489
0.128181
0.127905
0.127649
0.127383
0.127134
0.126831
0.133987
0.13321
0.132507
0.131883
0.131352
0.130917
0.130575
0.1303
0.130018
0.129686
0.129269
0.128863
0.128493
0.12816
0.127858
0.127585
0.127332
0.127074
0.126836
0.126543
0.133986
0.133208
0.132502
0.131873
0.131332
0.130882
0.130517
0.130208
0.129893
0.129527
0.129111
0.128693
0.128311
0.127974
0.127673
0.1274
0.127148
0.126893
0.126662
0.126378
0.133986
0.133207
0.132498
0.131865
0.131317
0.130858
0.13048
0.130154
0.129825
0.129447
0.129022
0.1286
0.128212
0.12787
0.127567
0.127292
0.127038
0.126783
0.126553
0.126271
0.13398
0.133194
0.132478
0.131835
0.131276
0.130803
0.130407
0.130068
0.129724
0.129341
0.128906
0.128485
0.128095
0.127751
0.127448
0.127166
0.126906
0.126645
0.12641
0.126126
0.134579
0.132656
0.129149
0.120919
0.063214
0.0489209
0.134537
0.133704
0.133136
0.132659
0.130352
0.127456
0.10392
0.0916401
0.794116
0.962034
0.98222
0.975358
1.07292
0.975178
0.134106
0.133425
0.132935
0.132679
0.132973
0.134603
0.130642
0.116538
0.371417
0.709894
0.717894
0.686766
0.538142
0.551261
0.531234
0.134066
0.133382
0.13285
0.132568
0.13286
0.134694
0.137238
0.134246
0.0780773
0.0914507
0.152264
0.132337
0.133543
0.135044
0.136231
0.13966
0.14345
0.146147
0.134041
0.133333
0.13276
0.132414
0.132538
0.133925
0.137401
0.143235
0.143227
0.136194
0.131321
0.134841
0.141319
0.141966
0.142604
0.143102
0.143452
0.143419
0.143227
0.142881
0.134025
0.133301
0.132697
0.132283
0.132238
0.133041
0.135902
0.14089
0.144671
0.145658
0.147133
0.148075
0.147554
0.146884
0.146206
0.145599
0.145018
0.144339
0.143597
0.142815
0.134015
0.133279
0.132651
0.132183
0.131999
0.132389
0.134138
0.137923
0.141227
0.143397
0.144427
0.144565
0.144032
0.143182
0.142503
0.141852
0.141209
0.140509
0.139779
0.139036
0.134007
0.133263
0.132616
0.132107
0.131821
0.131932
0.13286
0.135129
0.137458
0.139128
0.139853
0.14006
0.139701
0.139029
0.138417
0.137814
0.137222
0.136604
0.135982
0.135351
0.134002
0.13325
0.132589
0.132048
0.131688
0.131615
0.132035
0.133212
0.134596
0.135616
0.136035
0.136058
0.135767
0.135175
0.134694
0.134236
0.133793
0.133322
0.13285
0.132355
0.133997
0.133239
0.132567
0.132002
0.131588
0.131393
0.131512
0.132057
0.132758
0.133257
0.133395
0.133281
0.133057
0.132619
0.132249
0.131891
0.131534
0.131147
0.130761
0.13034
0.133994
0.13323
0.132549
0.131966
0.131512
0.131233
0.131169
0.131353
0.131628
0.131776
0.131706
0.131471
0.131226
0.130853
0.130526
0.13021
0.1299
0.129568
0.129244
0.128873
0.133991
0.133223
0.132535
0.131937
0.131454
0.131115
0.130936
0.130909
0.130932
0.130864
0.130655
0.130358
0.130068
0.129724
0.129422
0.129133
0.128855
0.128559
0.128276
0.127937
0.133989
0.133218
0.132523
0.131914
0.13141
0.131027
0.130773
0.130619
0.130493
0.130292
0.129993
0.129646
0.129318
0.128981
0.128686
0.128405
0.128139
0.12786
0.127597
0.127278
0.133988
0.133214
0.132514
0.131897
0.131377
0.130964
0.130659
0.130426
0.130208
0.129928
0.129553
0.129167
0.128812
0.128482
0.128179
0.127905
0.127647
0.127382
0.127137
0.126834
0.133987
0.13321
0.132507
0.131883
0.131352
0.130918
0.130575
0.130301
0.13002
0.129688
0.129271
0.128865
0.128493
0.128158
0.127858
0.127586
0.127333
0.127075
0.12684
0.126547
0.133986
0.133208
0.132502
0.131873
0.131332
0.130883
0.130517
0.130209
0.129894
0.129529
0.129114
0.128695
0.128312
0.127974
0.127674
0.127402
0.127149
0.126894
0.126664
0.12638
0.133986
0.133207
0.132498
0.131865
0.131317
0.130858
0.13048
0.130154
0.129826
0.129449
0.129023
0.1286
0.128212
0.12787
0.127567
0.127293
0.127039
0.126783
0.126554
0.126272
0.13398
0.133194
0.132478
0.131835
0.131276
0.130803
0.130407
0.130069
0.129724
0.129341
0.128906
0.128484
0.128095
0.127752
0.127448
0.127167
0.126908
0.126648
0.126413
0.12613
0.134579
0.132656
0.129148
0.120902
0.0632026
0.0489292
0.134537
0.133704
0.133137
0.13266
0.130349
0.127452
0.103898
0.0917865
0.82171
1.20186
1.35426
1.30231
1.42827
1.28584
0.134106
0.133425
0.132935
0.132679
0.132973
0.134605
0.13065
0.116529
0.423483
0.942459
0.93281
0.993222
0.784051
0.803547
0.782147
0.134066
0.133382
0.13285
0.132568
0.13286
0.134696
0.137245
0.13426
0.0782632
0.0913202
0.151753
0.132293
0.133819
0.135866
0.137712
0.145096
0.153756
0.159782
0.134041
0.133333
0.13276
0.132414
0.132538
0.133926
0.137404
0.143275
0.14322
0.136103
0.131092
0.134509
0.141151
0.141675
0.142195
0.142673
0.143038
0.143048
0.142911
0.142624
0.134025
0.133301
0.132697
0.132283
0.132238
0.133042
0.135902
0.140913
0.144707
0.145668
0.147094
0.148004
0.147445
0.146718
0.145997
0.145375
0.144796
0.144129
0.143402
0.142634
0.134015
0.133279
0.132651
0.132183
0.131999
0.13239
0.134137
0.137931
0.141247
0.143412
0.144426
0.144486
0.143787
0.14311
0.142398
0.141736
0.141094
0.140403
0.139686
0.138953
0.134007
0.133263
0.132616
0.132107
0.131821
0.131933
0.132859
0.135128
0.137462
0.139126
0.13985
0.140054
0.139534
0.138991
0.138368
0.137766
0.137179
0.136568
0.135954
0.13533
0.134002
0.13325
0.132589
0.132048
0.131689
0.131616
0.132036
0.13321
0.134594
0.135606
0.136029
0.136045
0.135696
0.135143
0.134664
0.134209
0.133768
0.133301
0.132832
0.13234
0.133997
0.133239
0.132567
0.132002
0.131588
0.131394
0.131513
0.132057
0.132758
0.133251
0.133389
0.133271
0.133014
0.132604
0.132232
0.131871
0.131514
0.131126
0.13074
0.13032
0.133994
0.13323
0.132549
0.131966
0.131512
0.131233
0.13117
0.131353
0.13163
0.131774
0.131704
0.131467
0.131201
0.130841
0.130511
0.130192
0.129881
0.129549
0.129226
0.128856
0.133991
0.133223
0.132535
0.131937
0.131454
0.131115
0.130936
0.130909
0.130933
0.130863
0.130655
0.130356
0.130054
0.129718
0.129414
0.129124
0.128845
0.128549
0.128266
0.127927
0.133989
0.133218
0.132523
0.131915
0.13141
0.131027
0.130773
0.130619
0.130494
0.130291
0.129993
0.129645
0.129311
0.128979
0.128682
0.128401
0.128133
0.127853
0.12759
0.12727
0.133988
0.133214
0.132514
0.131897
0.131377
0.130964
0.130658
0.130425
0.130207
0.129926
0.129553
0.129168
0.128809
0.128474
0.128178
0.127902
0.127643
0.127377
0.127132
0.126828
0.133987
0.13321
0.132507
0.131883
0.131352
0.130918
0.130576
0.1303
0.130019
0.129687
0.129271
0.128865
0.128491
0.128153
0.127856
0.127583
0.127329
0.12707
0.126835
0.126542
0.133986
0.133208
0.132502
0.131873
0.131332
0.130883
0.130517
0.130209
0.129894
0.129529
0.12911
0.128691
0.128308
0.127968
0.12767
0.127398
0.127145
0.12689
0.12666
0.126376
0.133986
0.133207
0.132498
0.131865
0.131317
0.130858
0.13048
0.130154
0.129826
0.129448
0.129024
0.128601
0.128213
0.12787
0.127567
0.127293
0.127038
0.126783
0.126553
0.126271
0.13398
0.133194
0.132478
0.131835
0.131276
0.130803
0.130407
0.130068
0.129724
0.129341
0.128906
0.128484
0.128095
0.127752
0.127447
0.127166
0.126906
0.126645
0.126409
0.126126
0.134579
0.132656
0.129147
0.120897
0.0632004
0.0489344
0.134537
0.133704
0.133137
0.132659
0.130348
0.12745
0.103889
0.0916621
0.780683
1.3074
1.64984
1.79341
1.90926
1.6142
0.134106
0.133426
0.132935
0.132679
0.132974
0.134608
0.130644
0.116519
0.51754
0.991858
1.01211
1.15107
1.09426
1.12502
1.1015
0.134066
0.133382
0.13285
0.132568
0.132861
0.134698
0.137245
0.134255
0.0782384
0.0913519
0.15172
0.133221
0.135426
0.13852
0.141842
0.156594
0.17403
0.185761
0.134041
0.133333
0.132761
0.132414
0.132539
0.133927
0.137406
0.143256
0.143205
0.13608
0.13103
0.134418
0.141044
0.141448
0.141875
0.142369
0.14276
0.142821
0.142771
0.142581
0.134025
0.133301
0.132697
0.132283
0.132239
0.133043
0.135903
0.140906
0.144687
0.145631
0.147039
0.147949
0.147375
0.146614
0.145862
0.145222
0.144645
0.143986
0.143268
0.142508
0.134015
0.133279
0.132651
0.132183
0.131999
0.13239
0.134137
0.137927
0.141237
0.143391
0.144393
0.14444
0.143742
0.143039
0.142305
0.141632
0.140988
0.140299
0.139584
0.138853
0.134007
0.133263
0.132616
0.132107
0.131821
0.131933
0.132859
0.135126
0.137456
0.139118
0.139832
0.140033
0.139506
0.138943
0.138307
0.137696
0.137105
0.136493
0.135879
0.135253
0.134002
0.13325
0.132589
0.132048
0.131689
0.131616
0.132036
0.133209
0.134591
0.135603
0.136021
0.136029
0.135677
0.135117
0.134631
0.13417
0.133726
0.133258
0.132789
0.132297
0.133997
0.133239
0.132567
0.132002
0.131588
0.131394
0.131513
0.132057
0.132757
0.133249
0.133386
0.133265
0.133004
0.132588
0.132212
0.131849
0.131491
0.131103
0.130718
0.130297
0.133994
0.13323
0.132549
0.131966
0.131512
0.131233
0.13117
0.131353
0.131629
0.131773
0.131702
0.131463
0.131195
0.130832
0.1305
0.13018
0.129868
0.129536
0.129212
0.128842
0.133991
0.133223
0.132535
0.131937
0.131454
0.131115
0.130937
0.130909
0.130933
0.130862
0.130654
0.130355
0.130051
0.129713
0.129408
0.129117
0.128838
0.128541
0.128258
0.127918
0.133989
0.133218
0.132523
0.131914
0.13141
0.131027
0.130773
0.130619
0.130494
0.130291
0.129992
0.129644
0.129309
0.128975
0.128678
0.128396
0.128128
0.127848
0.127585
0.127265
0.133988
0.133214
0.132514
0.131897
0.131377
0.130964
0.130659
0.130425
0.130208
0.129927
0.129552
0.129166
0.128807
0.128471
0.128174
0.127898
0.127639
0.127373
0.127127
0.126823
0.133987
0.13321
0.132507
0.131883
0.131352
0.130918
0.130575
0.130301
0.130019
0.129687
0.12927
0.128865
0.12849
0.128152
0.127854
0.127581
0.127327
0.127068
0.126833
0.126539
0.133986
0.133208
0.132502
0.131873
0.131332
0.130883
0.130517
0.130209
0.129894
0.129529
0.129114
0.128695
0.128311
0.127971
0.127672
0.127399
0.127147
0.126891
0.126661
0.126377
0.133986
0.133207
0.132498
0.131865
0.131317
0.130858
0.13048
0.130154
0.129826
0.129448
0.129023
0.1286
0.128212
0.127868
0.127566
0.127291
0.127036
0.12678
0.126551
0.126269
0.13398
0.133194
0.132478
0.131835
0.131276
0.130803
0.130407
0.130068
0.129724
0.129341
0.128906
0.128485
0.128095
0.127752
0.127447
0.127166
0.126906
0.126645
0.12641
0.126127
0.134579
0.132656
0.129147
0.120895
0.0631997
0.0489372
0.134537
0.133704
0.133137
0.132659
0.130348
0.127449
0.103884
0.0916619
0.785861
1.32553
1.82097
2.34574
2.13247
1.98069
0.134106
0.133426
0.132935
0.132679
0.132974
0.134609
0.130643
0.116514
0.782971
1.08208
1.15007
1.30375
1.35953
1.39833
1.37378
0.134066
0.133382
0.13285
0.132569
0.132861
0.134699
0.137246
0.134252
0.0782356
0.0913621
0.152304
0.134338
0.137483
0.142004
0.147139
0.170477
0.19756
0.215295
0.134041
0.133333
0.132761
0.132414
0.132539
0.133928
0.137407
0.143257
0.1432
0.136072
0.131001
0.134383
0.140997
0.141312
0.141675
0.142164
0.142578
0.142685
0.142718
0.142619
0.134025
0.133301
0.132697
0.132283
0.132239
0.133043
0.135903
0.140907
0.144686
0.145619
0.147012
0.147922
0.147333
0.146542
0.14576
0.145099
0.144512
0.143855
0.14314
0.142386
0.134015
0.133279
0.132651
0.132183
0.132
0.132391
0.134138
0.137928
0.141236
0.143385
0.144377
0.144416
0.143702
0.142984
0.142238
0.141557
0.140911
0.140225
0.139513
0.138785
0.134007
0.133263
0.132616
0.132107
0.131821
0.131933
0.13286
0.135126
0.137455
0.139115
0.139824
0.14002
0.139489
0.138914
0.13827
0.137656
0.137065
0.136454
0.135842
0.135218
0.134002
0.13325
0.132589
0.132048
0.131689
0.131616
0.132036
0.13321
0.13459
0.135601
0.136017
0.13602
0.135664
0.135099
0.134608
0.134145
0.1337
0.133232
0.132763
0.132271
0.133997
0.133239
0.132567
0.132002
0.131588
0.131394
0.131513
0.132057
0.132757
0.133248
0.133383
0.133261
0.132998
0.132578
0.132199
0.131834
0.131474
0.131086
0.1307
0.13028
0.133994
0.13323
0.132549
0.131966
0.131512
0.131233
0.13117
0.131353
0.131629
0.131773
0.131701
0.13146
0.131191
0.130825
0.130492
0.13017
0.129857
0.129524
0.1292
0.12883
0.133991
0.133223
0.132535
0.131937
0.131454
0.131115
0.130937
0.130909
0.130933
0.130862
0.130653
0.130353
0.130049
0.129709
0.129403
0.129111
0.128831
0.128534
0.12825
0.127911
0.133989
0.133218
0.132523
0.131914
0.13141
0.131027
0.130773
0.130619
0.130494
0.130291
0.129992
0.129644
0.129308
0.128973
0.128676
0.128393
0.128124
0.127844
0.127581
0.12726
0.133988
0.133214
0.132514
0.131897
0.131377
0.130964
0.130659
0.130426
0.130208
0.129927
0.129553
0.129167
0.128807
0.12847
0.128173
0.127897
0.127637
0.12737
0.127124
0.12682
0.133987
0.13321
0.132507
0.131883
0.131352
0.130918
0.130575
0.1303
0.130019
0.129687
0.129271
0.128865
0.12849
0.128151
0.127853
0.127579
0.127325
0.127066
0.12683
0.126537
0.133986
0.133208
0.132502
0.131873
0.131332
0.130882
0.130517
0.130208
0.129894
0.129529
0.129111
0.128692
0.128309
0.127968
0.127669
0.127397
0.127144
0.126888
0.126658
0.126374
0.133986
0.133207
0.132498
0.131865
0.131317
0.130858
0.13048
0.130154
0.129826
0.129448
0.129024
0.128601
0.128212
0.127868
0.127566
0.127292
0.127037
0.126781
0.126551
0.126269
0.13398
0.133194
0.132478
0.131835
0.131276
0.130803
0.130407
0.130069
0.129724
0.129341
0.128907
0.128485
0.128095
0.127752
0.127447
0.127165
0.126905
0.126644
0.126409
0.126125
0.134579
0.132656
0.129147
0.120894
0.0631994
0.0489393
0.134537
0.133704
0.133137
0.132659
0.130348
0.127449
0.103883
0.0917885
0.81796
1.42178
1.89945
2.31634
2.23905
2.04059
0.134106
0.133426
0.132935
0.132679
0.132974
0.13461
0.130641
0.116507
0.982951
1.09566
1.15756
1.31183
1.25632
1.33359
1.3107
0.134066
0.133382
0.13285
0.132568
0.132861
0.134699
0.137245
0.13425
0.0783023
0.0913421
0.152723
0.134259
0.137079
0.140943
0.145107
0.164932
0.18898
0.20648
0.134041
0.133333
0.132761
0.132414
0.132539
0.133928
0.137407
0.143254
0.143193
0.136064
0.130977
0.134356
0.140963
0.141305
0.14167
0.142132
0.142516
0.142604
0.142605
0.142477
0.134025
0.133301
0.132697
0.132283
0.132239
0.133043
0.135904
0.140906
0.144682
0.145608
0.146992
0.147909
0.147326
0.146538
0.145753
0.145088
0.144499
0.143841
0.143128
0.142374
0.134015
0.133279
0.132651
0.132183
0.132
0.132391
0.134138
0.137928
0.141234
0.143379
0.144367
0.144403
0.143694
0.142978
0.14223
0.141547
0.140901
0.140213
0.139501
0.138772
0.134007
0.133263
0.132616
0.132107
0.131821
0.131933
0.13286
0.135126
0.137454
0.139111
0.139818
0.140013
0.139482
0.138907
0.138262
0.137647
0.137054
0.136442
0.135829
0.135203
0.134002
0.13325
0.132589
0.132048
0.131689
0.131617
0.132036
0.13321
0.13459
0.135599
0.136013
0.136013
0.135657
0.13509
0.134598
0.134133
0.133687
0.133219
0.132749
0.132256
0.133997
0.133239
0.132567
0.132002
0.131588
0.131394
0.131514
0.132057
0.132756
0.133247
0.133381
0.133259
0.132993
0.132572
0.132191
0.131825
0.131464
0.131076
0.13069
0.130269
0.133994
0.13323
0.132549
0.131966
0.131512
0.131233
0.13117
0.131353
0.131629
0.131772
0.1317
0.131458
0.131187
0.130821
0.130486
0.130163
0.12985
0.129517
0.129193
0.128821
0.133991
0.133223
0.132535
0.131937
0.131454
0.131115
0.130937
0.130909
0.130933
0.130862
0.130653
0.130352
0.130047
0.129706
0.129399
0.129107
0.128826
0.128529
0.128245
0.127905
0.133989
0.133218
0.132523
0.131914
0.13141
0.131027
0.130773
0.130619
0.130494
0.130291
0.129992
0.129643
0.129307
0.128971
0.128673
0.12839
0.128121
0.12784
0.127577
0.127255
0.133988
0.133214
0.132514
0.131897
0.131377
0.130964
0.130659
0.130425
0.130208
0.129927
0.129552
0.129166
0.128806
0.128468
0.128171
0.127894
0.127634
0.127368
0.127121
0.126817
0.133987
0.13321
0.132507
0.131883
0.131352
0.130918
0.130575
0.130301
0.130019
0.129687
0.12927
0.128864
0.128489
0.12815
0.127852
0.127579
0.127324
0.127065
0.126829
0.126535
0.133986
0.133208
0.132502
0.131873
0.131332
0.130882
0.130517
0.130209
0.129894
0.129529
0.129114
0.128695
0.128311
0.12797
0.127671
0.127398
0.127144
0.126889
0.126659
0.126374
0.133986
0.133207
0.132498
0.131865
0.131317
0.130858
0.13048
0.130154
0.129826
0.129448
0.129023
0.1286
0.128212
0.127867
0.127565
0.12729
0.127035
0.126779
0.126549
0.126267
0.13398
0.133194
0.132478
0.131835
0.131276
0.130803
0.130407
0.130069
0.129724
0.129341
0.128907
0.128485
0.128095
0.127752
0.127446
0.127165
0.126905
0.126643
0.126408
0.126125
0.134579
0.132656
0.129146
0.120894
0.0631991
0.0489407
0.134537
0.133704
0.133137
0.132659
0.130348
0.127449
0.103882
0.0917913
0.849388
1.39807
1.85901
1.84911
2.23117
1.83441
0.134106
0.133426
0.132935
0.132679
0.132974
0.134609
0.130641
0.116513
0.607664
0.982731
1.00727
1.14809
0.886533
0.968877
0.93301
0.134066
0.133382
0.13285
0.132569
0.132862
0.134699
0.137245
0.13425
0.0783088
0.091271
0.152674
0.132855
0.134565
0.136781
0.138821
0.148345
0.159925
0.169027
0.134041
0.133333
0.132761
0.132414
0.132539
0.133929
0.137407
0.14327
0.143198
0.136051
0.130936
0.134312
0.140992
0.141452
0.141867
0.142281
0.142613
0.142645
0.142539
0.142288
0.134025
0.133301
0.132697
0.132283
0.132239
0.133044
0.135904
0.140912
0.144694
0.145622
0.147002
0.147921
0.147362
0.146602
0.145833
0.145171
0.144578
0.143913
0.143194
0.142433
0.134015
0.133279
0.132651
0.132183
0.132
0.132391
0.134138
0.13793
0.141239
0.143384
0.144371
0.144411
0.143718
0.143014
0.142271
0.141588
0.140937
0.140245
0.139529
0.138796
0.134007
0.133263
0.132616
0.132107
0.131821
0.131934
0.13286
0.135126
0.137455
0.139112
0.139819
0.140012
0.139484
0.138917
0.138275
0.137659
0.137064
0.13645
0.135835
0.135208
0.134002
0.13325
0.132589
0.132048
0.131689
0.131617
0.132036
0.13321
0.13459
0.135598
0.136012
0.13601
0.135654
0.135089
0.134598
0.134133
0.133686
0.133217
0.132747
0.132254
0.133997
0.133239
0.132567
0.132002
0.131588
0.131394
0.131514
0.132057
0.132756
0.133247
0.13338
0.133257
0.132991
0.13257
0.132189
0.131822
0.131461
0.131072
0.130686
0.130264
0.133994
0.13323
0.132549
0.131966
0.131512
0.131233
0.13117
0.131353
0.131629
0.131772
0.131699
0.131457
0.131185
0.130818
0.130483
0.13016
0.129846
0.129513
0.129189
0.128817
0.133991
0.133223
0.132535
0.131937
0.131454
0.131115
0.130937
0.130909
0.130933
0.130862
0.130652
0.130351
0.130046
0.129704
0.129397
0.129104
0.128823
0.128526
0.128242
0.127901
0.133989
0.133218
0.132523
0.131914
0.13141
0.131027
0.130773
0.130619
0.130494
0.130291
0.129992
0.129643
0.129307
0.12897
0.128672
0.128388
0.128119
0.127838
0.127575
0.127253
0.133988
0.133214
0.132514
0.131897
0.131377
0.130964
0.130659
0.130425
0.130208
0.129927
0.129552
0.129166
0.128806
0.128468
0.128171
0.127893
0.127633
0.127366
0.12712
0.126816
0.133987
0.13321
0.132507
0.131883
0.131352
0.130918
0.130575
0.130301
0.130019
0.129687
0.12927
0.128865
0.128489
0.12815
0.127852
0.127578
0.127322
0.127063
0.126827
0.126534
0.133986
0.133208
0.132502
0.131873
0.131332
0.130882
0.130517
0.130208
0.129894
0.129529
0.129112
0.128693
0.128309
0.127968
0.127669
0.127396
0.127142
0.126887
0.126657
0.126372
0.133986
0.133207
0.132498
0.131865
0.131317
0.130858
0.13048
0.130154
0.129826
0.129448
0.129024
0.128601
0.128212
0.127867
0.127565
0.12729
0.127035
0.126779
0.126549
0.126267
0.13398
0.133194
0.132478
0.131835
0.131276
0.130803
0.130407
0.130068
0.129724
0.129341
0.128907
0.128485
0.128095
0.127752
0.127446
0.127164
0.126904
0.126643
0.126407
0.126124
0.134579
0.132656
0.129146
0.120893
0.063199
0.0489416
0.134537
0.133704
0.133137
0.132659
0.130348
0.127449
0.103881
0.0916618
0.803231
1.12416
1.29709
1.31338
1.60725
1.49276
0.134106
0.133426
0.132935
0.132679
0.132974
0.13461
0.13064
0.116516
0.368851
0.737936
0.796119
0.817531
0.547357
0.606641
0.590604
0.134066
0.133382
0.13285
0.132569
0.132862
0.1347
0.137245
0.134249
0.0782658
0.0913482
0.151899
0.132122
0.133267
0.134654
0.135811
0.139569
0.143965
0.147685
0.134041
0.133333
0.132761
0.132414
0.132539
0.133929
0.137407
0.143253
0.143192
0.136048
0.130936
0.134314
0.140937
0.141506
0.141988
0.142395
0.142714
0.142718
0.142556
0.142237
0.134025
0.133301
0.132697
0.132283
0.132239
0.133044
0.135904
0.140906
0.144678
0.1456
0.146977
0.147906
0.147371
0.146638
0.145886
0.145231
0.144638
0.143968
0.143246
0.142481
0.134015
0.133279
0.132651
0.132183
0.132
0.132391
0.134138
0.137927
0.141232
0.143373
0.144361
0.144406
0.14372
0.14303
0.142301
0.141624
0.140975
0.140281
0.139564
0.138829
0.134007
0.133263
0.132616
0.132107
0.131821
0.131934
0.13286
0.135126
0.137453
0.139107
0.139815
0.140008
0.139484
0.138925
0.138288
0.137672
0.137076
0.13646
0.135844
0.135216
0.134002
0.13325
0.132589
0.132048
0.131689
0.131617
0.132036
0.133209
0.134589
0.135597
0.13601
0.136008
0.135653
0.13509
0.1346
0.134136
0.133689
0.13322
0.13275
0.132256
0.133997
0.133239
0.132567
0.132002
0.131588
0.131394
0.131514
0.132057
0.132756
0.133246
0.133379
0.133256
0.13299
0.132569
0.132189
0.131822
0.131461
0.131072
0.130686
0.130264
0.133994
0.13323
0.132549
0.131966
0.131512
0.131233
0.13117
0.131353
0.131629
0.131772
0.131698
0.131456
0.131184
0.130817
0.130482
0.130159
0.129845
0.129512
0.129188
0.128816
0.133991
0.133223
0.132535
0.131937
0.131454
0.131115
0.130937
0.130909
0.130933
0.130862
0.130652
0.130351
0.130045
0.129703
0.129396
0.129103
0.128822
0.128525
0.128241
0.1279
0.133989
0.133218
0.132523
0.131914
0.13141
0.131027
0.130773
0.130619
0.130494
0.130291
0.129992
0.129643
0.129306
0.12897
0.128671
0.128387
0.128118
0.127837
0.127574
0.127252
0.133988
0.133214
0.132514
0.131897
0.131377
0.130964
0.130659
0.130425
0.130208
0.129927
0.129552
0.129166
0.128805
0.128467
0.12817
0.127892
0.127632
0.127365
0.127119
0.126815
0.133987
0.13321
0.132507
0.131883
0.131352
0.130918
0.130575
0.130301
0.130019
0.129687
0.12927
0.128864
0.128489
0.128149
0.127851
0.127577
0.127322
0.127063
0.126827
0.126533
0.133986
0.133208
0.132502
0.131873
0.131332
0.130882
0.130517
0.130209
0.129894
0.129529
0.129114
0.128694
0.12831
0.127969
0.12767
0.127397
0.127143
0.126888
0.126657
0.126373
0.133986
0.133207
0.132498
0.131865
0.131317