/*--------------------------------*- C++ -*----------------------------------*\
  =========                 |
  \\      /  F ield         | OpenFOAM: The Open Source CFD Toolbox
   \\    /   O peration     | Website:  https://openfoam.org
    \\  /    A nd           | Version:  10
     \\/     M anipulation  |
\*---------------------------------------------------------------------------*/
FoamFile
{
    format      ascii;
    class       volScalarField;
    location    "2000";
    object      omega;
}
// * * * * * * * * * * * * * * * * * * * * * * * * * * * * * * * * * * * * * //

dimensions      [0 0 -1 0 0 0 0];

internalField   nonuniform List<scalar> 
55398
(
1.75448
1.81692
1.76472
3.68896
4.45217
9.77748
1.70234
1.56273
1.44576
1.35203
1.28018
1.27565
2.17334
6.28662
11.878
9.59881
7.59683
6.04425
5.02173
3.99552
1.63798
1.516
1.41082
1.31999
1.24397
1.21068
1.45185
2.33614
21.0299
7.22256
4.91336
3.62778
2.89299
2.36759
2.00787
1.63856
1.51746
1.41297
1.32246
1.24566
1.19367
1.26316
1.53545
2.82562
14.8569
11.7918
4.43251
2.16955
1.85222
1.634
1.4453
1.3124
1.19776
1.6399
1.51974
1.41594
1.32589
1.24895
1.18929
1.18333
1.32637
1.67167
2.01968
2.49598
2.12743
1.80017
1.38513
1.24862
1.15485
1.0833
1.00699
0.950528
0.898789
1.64113
1.52187
1.41873
1.32913
1.25206
1.18846
1.15351
1.1936
1.24449
1.2843
1.31548
1.21127
1.14491
1.08197
1.01476
0.962333
0.91815
0.872365
0.834221
0.799646
1.64224
1.52379
1.42127
1.33161
1.25508
1.18908
1.14167
1.13039
1.13164
1.12575
1.09731
1.05435
1.00869
0.962869
0.920556
0.882125
0.847712
0.812953
0.782135
0.752912
1.64322
1.52552
1.42356
1.33485
1.25753
1.191
1.13831
1.10378
1.0795
1.0546
1.02201
0.985281
0.94802
0.910563
0.876372
0.843905
0.813832
0.784162
0.756818
0.730925
1.64315
1.52625
1.42516
1.33742
1.26055
1.19434
1.13775
1.0937
1.05789
1.02455
0.990029
0.955467
0.920659
0.886983
0.855283
0.825636
0.797529
0.770192
0.744311
0.720138
1.64504
1.52856
1.42753
1.33952
1.26289
1.1966
1.13903
1.09084
1.04961
1.01213
0.976051
0.94133
0.907797
0.875591
0.845325
0.816571
0.789339
0.763081
0.738217
0.714512
1.64578
1.52988
1.4293
1.34159
1.2651
1.19881
1.14044
1.09019
1.04635
1.00676
0.969641
0.934539
0.901288
0.869655
0.839893
0.811458
0.784813
0.759138
0.734769
0.711458
1.64644
1.53106
1.43087
1.34345
1.26712
1.20045
1.14206
1.09089
1.04568
1.00468
0.966555
0.93107
0.897844
0.866755
0.836847
0.808839
0.782295
0.756983
0.732935
0.70986
1.64706
1.53215
1.43231
1.34516
1.26902
1.20227
1.14365
1.0919
1.04593
1.00403
0.965336
0.929483
0.896062
0.864733
0.835256
0.807399
0.780987
0.755875
0.732015
0.709091
1.64763
1.53316
1.43364
1.34676
1.27114
1.20399
1.14521
1.09311
1.04655
1.00421
0.964995
0.928609
0.895261
0.863906
0.834422
0.8067
0.780368
0.755396
0.731672
0.708858
1.64816
1.5341
1.43488
1.34823
1.27239
1.20565
1.14677
1.09452
1.04758
1.00487
0.965344
0.929047
0.895325
0.863922
0.834451
0.806764
0.780468
0.755569
0.731924
0.709176
1.64866
1.53498
1.43604
1.3496
1.27369
1.20718
1.14828
1.09591
1.04878
1.00583
0.966254
0.929775
0.89595
0.864503
0.835096
0.807336
0.781047
0.756178
0.732574
0.709871
1.64913
1.53582
1.43713
1.35088
1.27522
1.20863
1.14976
1.09737
1.05017
1.00713
0.967463
0.930905
0.897008
0.865508
0.836026
0.80829
0.78198
0.757104
0.733505
0.71081
1.64952
1.5365
1.43802
1.35191
1.27631
1.20976
1.15091
1.09856
1.05133
1.00829
0.968594
0.932029
0.8981
0.86657
0.837087
0.809289
0.782941
0.758028
0.734402
0.711693
1.74416
1.61003
1.52952
1.80013
4.51485
6.13765
1.70199
1.56239
1.4452
1.34615
1.2923
1.30407
2.21818
8.05584
9.28654
8.41052
6.3875
5.41767
4.83665
3.90027
1.63763
1.51568
1.41095
1.31992
1.24358
1.20739
1.50982
2.94728
20.1981
7.26824
5.06712
3.8193
2.55849
2.39425
1.90937
1.6387
1.51758
1.41311
1.3226
1.24604
1.19269
1.2821
1.65695
2.915
4.67046
10.3824
2.944
2.34602
1.9702
1.73226
1.51601
1.36887
1.24409
1.64006
1.51988
1.41609
1.32605
1.24908
1.1892
1.18904
1.34926
1.69703
1.95859
2.07692
1.974
1.4947
1.35079
1.22657
1.13495
1.06608
0.994993
0.938911
0.888887
1.64129
1.522
1.41888
1.32929
1.25216
1.18869
1.15548
1.19763
1.25337
1.28116
1.24897
1.20037
1.13733
1.06766
1.00475
0.953157
0.910197
0.866431
0.828684
0.793915
1.64239
1.52392
1.42141
1.33225
1.25514
1.18995
1.14254
1.13163
1.13354
1.12787
1.09443
1.05244
1.00783
0.959487
0.918692
0.880515
0.846558
0.812996
0.781428
0.752565
1.64337
1.52564
1.42369
1.33493
1.25795
1.19132
1.13869
1.10425
1.07965
1.05525
1.02206
0.986208
0.949595
0.911464
0.876919
0.844301
0.814246
0.784758
0.757088
0.73113
1.64425
1.52719
1.42575
1.33737
1.26053
1.19454
1.13816
1.09399
1.0577
1.02441
0.989752
0.955315
0.920696
0.886578
0.855119
0.825213
0.797148
0.76996
0.744219
0.719828
1.64505
1.5286
1.42763
1.33959
1.26292
1.19678
1.13911
1.09085
1.04939
1.01184
0.975655
0.941108
0.907684
0.875286
0.845138
0.816372
0.789173
0.762976
0.73811
0.714406
1.64577
1.52988
1.42933
1.34162
1.26511
1.19904
1.14044
1.09014
1.04641
1.00667
0.969338
0.934045
0.901203
0.869472
0.839772
0.811474
0.784672
0.759014
0.734655
0.711349
1.64644
1.53106
1.43089
1.34348
1.26713
1.20052
1.1421
1.09088
1.04564
1.00463
0.96648
0.930981
0.89772
0.866914
0.836684
0.808707
0.782181
0.756867
0.732833
0.709772
1.64705
1.53214
1.43233
1.34519
1.26904
1.20232
1.14369
1.09192
1.04588
1.00405
0.965311
0.929444
0.896004
0.86468
0.835274
0.807342
0.780933
0.755793
0.731939
0.70902
1.64762
1.53315
1.43366
1.34679
1.27106
1.20404
1.14526
1.09314
1.04659
1.00424
0.964999
0.928602
0.895213
0.863865
0.834391
0.806677
0.780357
0.755354
0.731643
0.708846
1.64816
1.53409
1.4349
1.34826
1.27244
1.20569
1.14681
1.09454
1.04762
1.00491
0.965363
0.929054
0.895278
0.863879
0.834417
0.806751
0.780472
0.755543
0.731914
0.709187
1.64865
1.53498
1.43606
1.34963
1.27387
1.2072
1.1483
1.09593
1.04882
1.00587
0.966258
0.92978
0.895894
0.864452
0.835002
0.807328
0.781057
0.756157
0.732567
0.709883
1.64913
1.53581
1.43715
1.3509
1.27525
1.20865
1.14978
1.09739
1.05021
1.00716
0.967496
0.930934
0.896971
0.865475
0.836005
0.808295
0.782003
0.757096
0.733509
0.710833
1.64952
1.5365
1.43804
1.35193
1.27632
1.20978
1.15092
1.09857
1.05136
1.00831
0.968617
0.93205
0.898053
0.866527
0.837101
0.809285
0.782953
0.758011
0.734397
0.711704
1.7439
1.60527
1.51387
1.49733
2.92246
5.00972
1.702
1.56243
1.44529
1.34498
1.27691
1.24395
1.67181
5.04465
6.82117
6.65033
5.8491
5.49822
5.04731
4.13304
1.63746
1.51559
1.41071
1.31963
1.24316
1.19548
1.38425
2.40834
12.8555
7.71261
5.52596
4.19206
2.64222
2.47989
1.94248
1.63872
1.51759
1.41317
1.32261
1.24592
1.18957
1.23967
1.52559
2.39245
4.61714
10.8664
2.84437
2.33298
1.95742
1.70079
1.49912
1.34492
1.22587
1.64008
1.51989
1.41617
1.32613
1.24907
1.1885
1.17703
1.3088
1.56394
1.79129
1.90277
1.78223
1.41044
1.28505
1.1833
1.09948
1.03194
0.969434
0.915109
0.868681
1.64131
1.52201
1.41896
1.32938
1.25219
1.18874
1.15244
1.18254
1.22679
1.24531
1.21585
1.16687
1.10443
1.04192
0.987062
0.938337
0.895848
0.855378
0.818325
0.785029
1.64241
1.52393
1.42149
1.33234
1.25518
1.19043
1.14212
1.12667
1.12422
1.11427
1.08089
1.04074
0.998788
0.951071
0.911201
0.874112
0.840204
0.808058
0.776769
0.748568
1.64339
1.52565
1.42376
1.33502
1.258
1.19257
1.13877
1.10286
1.07685
1.05088
1.0174
0.982167
0.946263
0.908486
0.874467
0.842139
0.811947
0.783007
0.755371
0.729683
1.64427
1.5272
1.42582
1.33746
1.2606
1.19473
1.13847
1.0938
1.057
1.02323
0.988379
0.953788
0.919829
0.885692
0.854388
0.824543
0.796398
0.769413
0.743667
0.7194
1.64507
1.52861
1.42769
1.33968
1.26299
1.19684
1.1394
1.09099
1.0493
1.01162
0.975323
0.940478
0.907503
0.875014
0.84495
0.816215
0.788983
0.762871
0.737987
0.714358
1.6458
1.52989
1.42939
1.3417
1.26516
1.19878
1.14077
1.09049
1.04648
1.0067
0.969285
0.933718
0.901054
0.869228
0.839604
0.811333
0.784531
0.758913
0.734555
0.711302
1.64646
1.53107
1.43095
1.34355
1.26718
1.20069
1.1423
1.09099
1.04572
1.0047
0.966489
0.930949
0.897716
0.866491
0.836685
0.808716
0.782196
0.756885
0.73285
0.709825
1.64707
1.53215
1.43238
1.34526
1.26909
1.20251
1.14387
1.09198
1.04593
1.00409
0.965318
0.92944
0.895989
0.864614
0.835222
0.807325
0.780937
0.75579
0.731942
0.709052
1.64764
1.53316
1.43371
1.34686
1.271
1.20424
1.14543
1.09321
1.04664
1.00428
0.965008
0.928842
0.895197
0.864093
0.83431
0.806634
0.780347
0.755325
0.731625
0.708845
1.64818
1.53411
1.43495
1.34833
1.27261
1.20584
1.14694
1.09459
1.04766
1.00494
0.965375
0.929062
0.895267
0.863864
0.834372
0.806735
0.780486
0.755527
0.731906
0.709184
1.64867
1.53499
1.43611
1.34969
1.27401
1.20733
1.14842
1.09597
1.04885
1.00589
0.966283
0.929797
0.895887
0.864444
0.834961
0.807321
0.781084
0.756156
0.732579
0.709898
1.64914
1.53582
1.4372
1.35096
1.27536
1.20876
1.14988
1.09743
1.05025
1.0072
0.967523
0.930956
0.896964
0.865466
0.835958
0.808296
0.782036
0.757102
0.73353
0.710853
1.64954
1.53651
1.43808
1.35198
1.27641
1.20985
1.15098
1.09859
1.05138
1.00833
0.968633
0.932064
0.898037
0.86651
0.83712
0.809277
0.782977
0.758009
0.734411
0.711713
1.74391
1.60528
1.51385
1.4956
2.90708
5.00174
1.70199
1.56245
1.44532
1.345
1.27692
1.24335
1.66505
5.00114
6.73166
6.97029
6.29062
5.69074
5.27711
4.22923
1.63746
1.51559
1.4107
1.31961
1.24315
1.19537
1.38192
2.39924
14.9856
7.8666
5.65854
4.30686
2.74804
2.58831
2.03792
1.63872
1.51759
1.41316
1.32259
1.2459
1.18949
1.23885
1.52142
2.38262
4.50786
11.0562
2.86726
2.36525
1.98912
1.71398
1.5244
1.37638
1.25443
1.64008
1.51989
1.41616
1.32611
1.24905
1.18847
1.17688
1.30755
1.55948
1.78065
1.88596
1.74938
1.396
1.28741
1.18843
1.1038
1.03233
0.971411
0.917767
0.870676
1.6413
1.522
1.41895
1.32936
1.25217
1.18875
1.15245
1.18225
1.22568
1.24334
1.214
1.16534
1.099
1.04076
0.986853
0.938148
0.894434
0.854713
0.818139
0.78472
1.6424
1.52392
1.42147
1.33232
1.25517
1.1905
1.14218
1.12671
1.12404
1.11379
1.08049
1.04001
0.995915
0.950156
0.910669
0.873581
0.839111
0.806788
0.776416
0.748156
1.64339
1.52564
1.42375
1.33501
1.25799
1.19259
1.13881
1.10295
1.07696
1.0509
1.01737
0.981982
0.94489
0.907923
0.874058
0.841722
0.811258
0.782357
0.755016
0.729311
1.64427
1.52719
1.42582
1.33745
1.26059
1.19473
1.13848
1.09387
1.05713
1.02334
0.988462
0.953779
0.919741
0.885355
0.854132
0.824274
0.796016
0.769049
0.743421
0.719145
1.64507
1.5286
1.42769
1.33968
1.26298
1.19683
1.1394
1.09101
1.04937
1.0117
0.97538
0.940182
0.90736
0.874874
0.844843
0.816086
0.78879
0.762683
0.737848
0.714213
1.64579
1.52989
1.42939
1.3417
1.26516
1.19878
1.14075
1.09048
1.04649
1.00672
0.969296
0.933899
0.90098
0.869117
0.839534
0.811261
0.784444
0.758836
0.734489
0.711235
1.64646
1.53107
1.43095
1.34355
1.26717
1.20069
1.14229
1.09098
1.04572
1.00469
0.966485
0.930947
0.897669
0.866082
0.83669
0.808717
0.782192
0.756884
0.732838
0.709807
1.64707
1.53215
1.43238
1.34526
1.26909
1.20251
1.14387
1.09198
1.04593
1.00409
0.965318
0.929441
0.895968
0.864509
0.835125
0.807314
0.78094
0.7558
0.731937
0.709049
1.64764
1.53316
1.43371
1.34686
1.27101
1.20424
1.14543
1.09321
1.04664
1.00429
0.965013
0.928845
0.895199
0.864032
0.834282
0.806634
0.780375
0.755365
0.731643
0.70887
1.64818
1.53411
1.43495
1.34833
1.27262
1.20584
1.14694
1.09459
1.04767
1.00495
0.965389
0.929073
0.895292
0.863857
0.834356
0.806742
0.780523
0.755573
0.731924
0.70921
1.64867
1.53499
1.43611
1.34969
1.27402
1.20733
1.14842
1.09598
1.04886
1.0059
0.966302
0.92981
0.895921
0.864462
0.834948
0.807328
0.781119
0.756198
0.732591
0.709917
1.64914
1.53582
1.4372
1.35096
1.27536
1.20876
1.14988
1.09743
1.05025
1.0072
0.96753
0.930962
0.896999
0.865492
0.835941
0.808301
0.78207
0.75714
0.733539
0.710868
1.64954
1.53651
1.43808
1.35198
1.27641
1.20985
1.15099
1.0986
1.05138
1.00833
0.968637
0.932066
0.898073
0.86657
0.83715
0.809285
0.783015
0.758052
0.734428
0.711738
1.74391
1.60528
1.51387
1.4958
2.90765
5.00329
1.70199
1.56245
1.44532
1.34501
1.27697
1.24348
1.66636
4.99529
6.37666
6.76021
5.96676
5.49504
5.05045
4.14777
1.63745
1.51559
1.4107
1.31961
1.24315
1.19541
1.38226
2.3998
12.8647
8.15886
6.20115
4.81442
3.08977
2.89082
2.27445
1.63872
1.51759
1.41315
1.32258
1.24589
1.18949
1.23897
1.52198
2.38372
4.53645
10.9924
2.92846
2.43145
2.04909
1.76819
1.57923
1.43304
1.30879
1.64008
1.51988
1.41615
1.3261
1.24904
1.18847
1.17691
1.30791
1.56059
1.7834
1.89072
1.75434
1.39998
1.29196
1.19299
1.10787
1.0359
0.974675
0.920813
0.873581
1.6413
1.522
1.41894
1.32935
1.25216
1.18874
1.15244
1.18239
1.22608
1.24393
1.21457
1.16578
1.09912
1.04082
0.986924
0.938182
0.894435
0.854724
0.818165
0.78475
1.6424
1.52391
1.42146
1.33231
1.25516
1.1905
1.14216
1.12674
1.12418
1.11396
1.08072
1.03978
0.992845
0.950356
0.91067
0.873491
0.838982
0.80666
0.776323
0.748079
1.64338
1.52563
1.42375
1.335
1.25798
1.19259
1.1388
1.10293
1.07698
1.05087
1.01738
0.981956
0.943667
0.907747
0.87384
0.84152
0.811084
0.782221
0.75492
0.729237
1.64427
1.52719
1.42581
1.33745
1.26058
1.19473
1.13848
1.09385
1.05711
1.02328
0.988426
0.953696
0.919541
0.885113
0.853924
0.824096
0.795865
0.768922
0.743315
0.719053
1.64506
1.5286
1.42768
1.33967
1.26297
1.19683
1.1394
1.09101
1.04937
1.01166
0.975347
0.940117
0.907128
0.874773
0.844739
0.815978
0.788681
0.762579
0.737747
0.714116
1.64579
1.52989
1.42938
1.34169
1.26515
1.19877
1.14075
1.09048
1.0465
1.00671
0.969283
0.933872
0.900854
0.869042
0.839448
0.811169
0.784351
0.758747
0.734403
0.711155
1.64646
1.53107
1.43094
1.34355
1.26717
1.20069
1.14229
1.09098
1.04573
1.00469
0.966483
0.93093
0.897601
0.866029
0.836638
0.808663
0.782138
0.756831
0.732785
0.709757
1.64707
1.53215
1.43238
1.34526
1.26909
1.20251
1.14387
1.09197
1.04593
1.00409
0.965316
0.929432
0.895935
0.864442
0.835082
0.807272
0.780897
0.755758
0.731891
0.709005
1.64764
1.53316
1.43371
1.34686
1.27101
1.20424
1.14543
1.09321
1.04664
1.00428
0.965016
0.928844
0.895191
0.863708
0.834288
0.806633
0.780368
0.755354
0.731626
0.708852
1.64817
1.5341
1.43495
1.34833
1.27262
1.20584
1.14694
1.09458
1.04766
1.00494
0.965384
0.929058
0.895285
0.8638
0.834326
0.806716
0.780497
0.755547
0.731898
0.709186
1.64867
1.53499
1.43611
1.34969
1.27401
1.20733
1.14842
1.09597
1.04886
1.0059
0.966276
0.929789
0.895923
0.864425
0.834925
0.807311
0.781104
0.756184
0.732577
0.709902
1.64914
1.53582
1.4372
1.35096
1.27536
1.20876
1.14988
1.09743
1.05025
1.0072
0.967533
0.930963
0.897028
0.865486
0.835938
0.808301
0.782069
0.757138
0.733534
0.710861
1.64954
1.53651
1.43808
1.35198
1.27641
1.20985
1.15099
1.0986
1.05138
1.00833
0.968636
0.932065
0.898105
0.866632
0.83714
0.809277
0.783006
0.758041
0.734413
0.711722
1.74391
1.60528
1.51388
1.49586
2.9077
5.00409
1.70199
1.56245
1.44532
1.345
1.27698
1.24354
1.66683
5.00019
5.40529
5.77114
5.18174
5.1303
4.74612
4.25763
1.63745
1.51559
1.4107
1.31961
1.24315
1.19545
1.38238
2.39973
8.45324
8.41038
7.05083
5.7009
3.60645
3.3534
2.62247
1.63872
1.51759
1.41315
1.32258
1.24589
1.1895
1.23902
1.52203
2.38336
4.51858
10.9893
3.01209
2.52009
2.13097
1.84545
1.66042
1.51863
1.39177
1.64007
1.51988
1.41614
1.32609
1.24903
1.18847
1.17693
1.30802
1.56071
1.78351
1.89119
1.75526
1.40224
1.29549
1.19708
1.11212
1.0401
0.978924
0.925207
0.878122
1.6413
1.52199
1.41893
1.32934
1.25215
1.18874
1.15245
1.18242
1.22615
1.24398
1.21457
1.1659
1.09932
1.04107
0.987231
0.938466
0.894725
0.855027
0.81847
0.78505
1.6424
1.52391
1.42146
1.3323
1.25515
1.1905
1.14216
1.12674
1.12419
1.11397
1.08069
1.03971
0.992807
0.950203
0.910467
0.873261
0.838755
0.806449
0.776124
0.747884
1.64338
1.52563
1.42374
1.33499
1.25797
1.19258
1.13879
1.10292
1.07696
1.05087
1.01733
0.981887
0.943523
0.907535
0.873589
0.841248
0.81081
0.781954
0.754663
0.728983
1.64426
1.52719
1.42581
1.33744
1.26058
1.19473
1.13847
1.09384
1.0571
1.02326
0.98839
0.953617
0.919403
0.884971
0.853762
0.823917
0.795684
0.768746
0.743147
0.718889
1.64506
1.5286
1.42768
1.33966
1.26297
1.19683
1.13939
1.091
1.04936
1.01165
0.975323
0.940078
0.907056
0.874675
0.84463
0.815865
0.788574
0.76248
0.737657
0.71403
1.64579
1.52988
1.42938
1.34169
1.26515
1.19877
1.14075
1.09047
1.0465
1.0067
0.969267
0.933844
0.900805
0.868977
0.839384
0.811103
0.784289
0.758688
0.734349
0.711099
1.64646
1.53106
1.43094
1.34354
1.26717
1.20068
1.14229
1.09097
1.04572
1.00468
0.966472
0.930915
0.897573
0.865988
0.836602
0.808625
0.782101
0.756796
0.732753
0.709723
1.64707
1.53215
1.43238
1.34525
1.26909
1.20251
1.14387
1.09197
1.04593
1.00409
0.96531
0.929422
0.895916
0.864407
0.835059
0.807247
0.780872
0.755735
0.731872
0.708984
1.64764
1.53316
1.43371
1.34686
1.27101
1.20424
1.14543
1.09321
1.04664
1.00428
0.965005
0.928832
0.895173
0.86367
0.834268
0.806613
0.780348
0.755334
0.731608
0.708832
1.64817
1.5341
1.43495
1.34833
1.27262
1.20584
1.14694
1.09459
1.04766
1.00494
0.965382
0.92906
0.895283
0.863763
0.834321
0.806712
0.780492
0.755541
0.731891
0.709177
1.64867
1.53499
1.43611
1.34969
1.27401
1.20733
1.14842
1.09597
1.04885
1.0059
0.966297
0.9298
0.89593
0.86439
0.834927
0.807313
0.781105
0.756184
0.732577
0.709903
1.64914
1.53582
1.4372
1.35096
1.27536
1.20876
1.14988
1.09743
1.05025
1.0072
0.967528
0.930957
0.89702
0.865431
0.835929
0.808292
0.782059
0.757129
0.733526
0.710853
1.64954
1.53651
1.43808
1.35198
1.27641
1.20985
1.15099
1.0986
1.05138
1.00833
0.968637
0.932065
0.898104
0.866657
0.837136
0.809276
0.783006
0.758043
0.734417
0.711727
1.7439
1.60528
1.51389
1.49588
2.9077
5.00454
1.70199
1.56245
1.44532
1.345
1.27698
1.24357
1.66704
4.99978
4.89136
4.78904
4.30235
4.488
4.17133
4.1528
1.63745
1.51559
1.4107
1.31961
1.24316
1.19546
1.38244
2.39955
6.16859
8.40385
7.64592
6.42363
4.01345
3.70554
2.90618
1.63872
1.51759
1.41315
1.32257
1.24589
1.18951
1.23904
1.52208
2.38283
4.52008
11.0269
3.07596
2.5879
2.19758
1.91042
1.73319
1.59693
1.4688
1.64007
1.51988
1.41614
1.32609
1.24903
1.18847
1.17693
1.30803
1.56061
1.78333
1.89106
1.7557
1.40335
1.29744
1.19945
1.11471
1.04285
0.981918
0.928515
0.881661
1.6413
1.52199
1.41893
1.32933
1.25215
1.18874
1.15245
1.18242
1.22615
1.24396
1.21453
1.16595
1.09939
1.04115
0.987304
0.938486
0.894715
0.855026
0.818472
0.785069
1.64239
1.5239
1.42145
1.33229
1.25515
1.1905
1.14216
1.12674
1.12419
1.11396
1.08068
1.03967
0.992695
0.950044
0.910278
0.873057
0.838558
0.806272
0.775964
0.747739
1.64338
1.52563
1.42374
1.33499
1.25797
1.19258
1.13879
1.10292
1.07695
1.05086
1.0173
0.981836
0.943441
0.907395
0.873425
0.841079
0.810649
0.781807
0.754527
0.728859
1.64426
1.52718
1.4258
1.33744
1.26057
1.19472
1.13847
1.09384
1.05709
1.02325
0.988365
0.953564
0.919325
0.884867
0.853643
0.823792
0.79556
0.768629
0.743034
0.718781
1.64506
1.5286
1.42768
1.33966
1.26296
1.19683
1.13939
1.091
1.04935
1.01164
0.975305
0.940052
0.907013
0.87461
0.844556
0.815785
0.788492
0.762401
0.737578
0.713954
1.64579
1.52988
1.42938
1.34169
1.26515
1.19877
1.14075
1.09047
1.04649
1.00669
0.969257
0.933826
0.900776
0.868932
0.839335
0.81105
0.784234
0.758633
0.734294
0.711046
1.64646
1.53106
1.43094
1.34354
1.26716
1.20068
1.14229
1.09097
1.04572
1.00468
0.966467
0.930904
0.897555
0.865957
0.836572
0.808591
0.782066
0.756761
0.732717
0.709689
1.64707
1.53215
1.43238
1.34525
1.26909
1.2025
1.14386
1.09197
1.04593
1.00409
0.965307
0.929417
0.895906
0.864386
0.835041
0.807227
0.780852
0.755714
0.731849
0.708962
1.64764
1.53316
1.43371
1.34685
1.27101
1.20424
1.14543
1.09321
1.04664
1.00428
0.965008
0.928833
0.895171
0.863655
0.834259
0.806602
0.780336
0.755321
0.731595
0.708819
1.64818
1.5341
1.43495
1.34833
1.27262
1.20584
1.14694
1.09458
1.04766
1.00494
0.965381
0.929055
0.895277
0.863741
0.83431
0.806698
0.780478
0.755526
0.731876
0.709162
1.64867
1.53499
1.43611
1.34969
1.27401
1.20733
1.14842
1.09597
1.04885
1.0059
0.966282
0.929789
0.895918
0.864362
0.834915
0.8073
0.781092
0.756171
0.732564
0.709889
1.64914
1.53582
1.4372
1.35096
1.27536
1.20876
1.14988
1.09743
1.05025
1.0072
0.96753
0.930958
0.897021
0.865413
0.835929
0.808292
0.782059
0.757128
0.733525
0.710853
1.64954
1.53651
1.43808
1.35198
1.27641
1.20985
1.15099
1.09859
1.05138
1.00833
0.968636
0.932065
0.898103
0.86667
0.837132
0.809271
0.783001
0.758037
0.73441
0.71172
1.7439
1.60528
1.51389
1.49589
2.90771
5.00484
1.70199
1.56245
1.44532
1.345
1.27698
1.24359
1.66714
4.99432
5.16262
4.8217
4.3553
4.69053
4.15395
4.36154
1.63745
1.51559
1.4107
1.31961
1.24316
1.19546
1.38246
2.3995
5.86177
8.3739
7.56717
6.40308
3.88807
3.65814
2.884
1.63872
1.51759
1.41314
1.32257
1.24588
1.18951
1.23905
1.52209
2.38309
4.53623
11.046
3.05779
2.56873
2.1796
1.89276
1.71348
1.57782
1.4545
1.64007
1.51987
1.41614
1.32608
1.24903
1.18847
1.17694
1.30806
1.56069
1.78357
1.89148
1.75636
1.40378
1.29766
1.19963
1.11486
1.04294
0.981968
0.928514
0.881686
1.6413
1.52199
1.41893
1.32933
1.25215
1.18874
1.15245
1.18244
1.22618
1.24401
1.21458
1.16607
1.09956
1.04133
0.987482
0.938662
0.894893
0.855204
0.818657
0.785258
1.64239
1.5239
1.42145
1.33229
1.25514
1.1905
1.14216
1.12674
1.1242
1.11397
1.0807
1.03968
0.992734
0.950095
0.910327
0.873099
0.838596
0.806304
0.775991
0.747759
1.64338
1.52562
1.42373
1.33498
1.25797
1.19258
1.13879
1.10292
1.07695
1.05085
1.01729
0.981817
0.943418
0.907375
0.873399
0.841047
0.810613
0.781769
0.754487
0.728813
1.64426
1.52718
1.4258
1.33743
1.26057
1.19472
1.13847
1.09384
1.05708
1.02324
0.988347
0.953527
0.919279
0.884816
0.853586
0.823732
0.795498
0.768568
0.742975
0.71872
1.64506
1.5286
1.42767
1.33966
1.26296
1.19682
1.13939
1.091
1.04935
1.01163
0.97529
0.94003
0.906981
0.874569
0.844507
0.815732
0.78844
0.76235
0.737529
0.713905
1.64579
1.52988
1.42938
1.34169
1.26515
1.19877
1.14075
1.09047
1.04649
1.00669
0.969246
0.933809
0.900751
0.868902
0.8393
0.811012
0.784196
0.758597
0.734259
0.71101
1.64646
1.53106
1.43094
1.34354
1.26716
1.20068
1.14229
1.09097
1.04572
1.00468
0.966461
0.930894
0.89754
0.865938
0.836548
0.808565
0.78204
0.756736
0.732693
0.709663
1.64707
1.53215
1.43238
1.34525
1.26909
1.2025
1.14386
1.09197
1.04592
1.00408
0.965303
0.929412
0.895897
0.864373
0.835025
0.807209
0.780834
0.755696
0.731831
0.708943
1.64764
1.53316
1.43371
1.34685
1.27101
1.20424
1.14543
1.0932
1.04664
1.00428
0.965002
0.928827
0.895163
0.863645
0.834247
0.806589
0.780323
0.755308
0.731582
0.708805
1.64817
1.5341
1.43495
1.34833
1.27262
1.20584
1.14694
1.09459
1.04766
1.00494
0.96538
0.929056
0.895277
0.86374
0.834307
0.806695
0.780474
0.755522
0.731873
0.709158
1.64867
1.53499
1.43611
1.34969
1.27401
1.20733
1.14842
1.09597
1.04885
1.0059
0.966294
0.929797
0.895925
0.864366
0.834917
0.807302
0.781092
0.75617
0.732563
0.709888
1.64914
1.53582
1.4372
1.35096
1.27536
1.20876
1.14988
1.09743
1.05025
1.0072
0.967527
0.930955
0.897017
0.865408
0.835923
0.808284
0.78205
0.757119
0.733516
0.710843
1.64953
1.53651
1.43808
1.35198
1.27641
1.20985
1.15099
1.09859
1.05138
1.00833
0.968636
0.932064
0.898102
0.866668
0.83713
0.809269
0.782998
0.758034
0.734407
0.711717
1.7439
1.60528
1.51389
1.4959
2.90772
5.00503
1.70199
1.56245
1.44532
1.345
1.27698
1.2436
1.6672
4.9946
5.26425
5.78145
5.31226
5.56315
5.05459
4.80633
1.63745
1.51559
1.4107
1.3196
1.24316
1.19546
1.38247
2.39976
7.37217
8.31612
6.85128
5.59341
3.33429
3.21109
2.53113
1.63872
1.51759
1.41314
1.32257
1.24589
1.18951
1.23905
1.52208
2.38368
4.54497
11.0254
2.96495
2.47389
2.09315
1.81194
1.62585
1.48352
1.36209
1.64007
1.51987
1.41614
1.32608
1.24903
1.18847
1.17693
1.30803
1.56074
1.7838
1.89221
1.75707
1.40327
1.29616
1.19776
1.11279
1.04081
0.979656
0.925868
0.878788
1.6413
1.52199
1.41893
1.32933
1.25215
1.18874
1.15245
1.18242
1.22617
1.244
1.21457
1.16609
1.09971
1.04151
0.987664
0.938862
0.895089
0.855377
0.818816
0.785405
1.64239
1.5239
1.42145
1.33229
1.25514
1.1905
1.14216
1.12674
1.12419
1.11396
1.08071
1.03972
0.992861
0.950264
0.910511
0.873276
0.838751
0.806433
0.776102
0.747854
1.64338
1.52562
1.42373
1.33498
1.25797
1.19258
1.13879
1.10292
1.07694
1.05084
1.01729
0.981807
0.943422
0.907417
0.873455
0.8411
0.810655
0.781801
0.754509
0.728827
1.64426
1.52718
1.4258
1.33743
1.26057
1.19472
1.13847
1.09384
1.05708
1.02323
0.988335
0.953506
0.919261
0.884806
0.853578
0.823724
0.795488
0.768558
0.742963
0.718705
1.64506
1.52859
1.42767
1.33966
1.26296
1.19682
1.13939
1.091
1.04935
1.01163
0.97528
0.940017
0.906964
0.874551
0.844489
0.815714
0.788421
0.762331
0.73751
0.713884
1.64579
1.52988
1.42938
1.34169
1.26514
1.19877
1.14075
1.09047
1.04649
1.00668
0.96924
0.933798
0.900737
0.868885
0.839281
0.810993
0.784178
0.758579
0.734241
0.710992
1.64646
1.53106
1.43094
1.34354
1.26716
1.20068
1.14229
1.09097
1.04572
1.00468
0.966457
0.930888
0.89753
0.865926
0.836535
0.808551
0.782025
0.756722
0.732679
0.709649
1.64707
1.53215
1.43238
1.34525
1.26909
1.2025
1.14386
1.09197
1.04592
1.00408
0.965302
0.929408
0.895891
0.864366
0.835017
0.8072
0.780824
0.755687
0.731822
0.708934
1.64764
1.53316
1.43371
1.34685
1.27101
1.20424
1.14543
1.0932
1.04664
1.00428
0.965004
0.928827
0.895162
0.863642
0.834243
0.806583
0.780317
0.755302
0.731576
0.708799
1.64817
1.5341
1.43495
1.34833
1.27262
1.20583
1.14694
1.09459
1.04766
1.00494
0.96538
0.929053
0.895273
0.863734
0.834301
0.806687
0.780466
0.755514
0.731864
0.709149
1.64867
1.53499
1.43611
1.34969
1.27401
1.20733
1.14842
1.09597
1.04885
1.0059
0.966285
0.92979
0.895918
0.864359
0.834909
0.807294
0.781084
0.756162
0.732555
0.70988
1.64914
1.53582
1.4372
1.35096
1.27536
1.20876
1.14988
1.09743
1.05025
1.0072
0.967528
0.930957
0.897018
0.865409
0.835923
0.808285
0.78205
0.757119
0.733516
0.710843
1.64953
1.53651
1.43808
1.35198
1.27641
1.20985
1.15099
1.09859
1.05138
1.00833
0.968636
0.932064
0.898102
0.866667
0.837128
0.809266
0.782995
0.758031
0.734404
0.711714
1.7439
1.60528
1.51389
1.4959
2.90774
5.00515
1.70199
1.56245
1.44532
1.345
1.27699
1.2436
1.66722
5.00051
6.46216
7.13974
6.3263
5.84751
5.39998
4.59249
1.63745
1.51559
1.4107
1.3196
1.24316
1.19546
1.38247
2.39991
13.8402
7.78121
5.79401
4.57558
2.8425
2.74687
2.18898
1.63872
1.51759
1.41314
1.32257
1.24589
1.18951
1.23905
1.52213
2.38318
4.51844
10.9847
2.89117
2.39766
2.02502
1.75092
1.56146
1.41498
1.2948
1.64007
1.51987
1.41614
1.32608
1.24903
1.18847
1.17694
1.30806
1.56077
1.78319
1.89113
1.75631
1.40267
1.29464
1.19595
1.11096
1.03909
0.977897
0.923979
0.876788
1.64129
1.52199
1.41892
1.32933
1.25215
1.18874
1.15245
1.18244
1.22618
1.24401
1.21457
1.16615
1.09986
1.04166
0.987793
0.938996
0.89522
0.855486
0.818918
0.785496
1.64239
1.5239
1.42145
1.33229
1.25514
1.1905
1.14216
1.12674
1.12419
1.11396
1.08073
1.03976
0.992928
0.950387
0.910674
0.873456
0.838925
0.806592
0.776246
0.747981
1.64337
1.52562
1.42373
1.33498
1.25797
1.19258
1.13879
1.10292
1.07694
1.05083
1.01729
0.981806
0.943442
0.907476
0.873529
0.84117
0.810715
0.781852
0.754553
0.728864
1.64426
1.52718
1.4258
1.33743
1.26057
1.19472
1.13847
1.09384
1.05708
1.02323
0.98833
0.953498
0.919258
0.884811
0.853591
0.823739
0.795503
0.768572
0.742977
0.718716
1.64506
1.52859
1.42767
1.33966
1.26296
1.19682
1.13939
1.091
1.04935
1.01162
0.975275
0.94001
0.906957
0.874547
0.844488
0.815713
0.78842
0.76233
0.737509
0.713881
1.64579
1.52988
1.42938
1.34169
1.26514
1.19877
1.14075
1.09047
1.04649
1.00668
0.969237
0.933792
0.90073
0.868878
0.839275
0.810987
0.784172
0.758574
0.734237
0.710987
1.64646
1.53106
1.43094
1.34354
1.26716
1.20068
1.14229
1.09097
1.04572
1.00467
0.966455
0.930884
0.897526
0.86592
0.836529
0.808545
0.78202
0.756717
0.732674
0.709644
1.64707
1.53215
1.43238
1.34525
1.26909
1.2025
1.14386
1.09197
1.04592
1.00408
0.9653
0.929406
0.895888
0.864362
0.835012
0.807195
0.780819
0.755682
0.731817
0.708929
1.64764
1.53316
1.43371
1.34685
1.27101
1.20424
1.14543
1.0932
1.04664
1.00428
0.965001
0.928824
0.895158
0.863638
0.834238
0.806579
0.780313
0.755298
0.731571
0.708794
1.64817
1.5341
1.43495
1.34833
1.27262
1.20583
1.14694
1.09459
1.04766
1.00494
0.965379
0.929054
0.895274
0.863735
0.834301
0.806688
0.780466
0.755514
0.731865
0.709149
1.64867
1.53499
1.43611
1.34969
1.27401
1.20733
1.14842
1.09597
1.04885
1.00589
0.966293
0.929795
0.895922
0.864363
0.834913
0.807296
0.781086
0.756164
0.732557
0.709882
1.64914
1.53582
1.4372
1.35096
1.27536
1.20876
1.14988
1.09743
1.05025
1.0072
0.967527
0.930955
0.897016
0.865406
0.83592
0.808281
0.782047
0.757116
0.733513
0.710839
1.64953
1.53651
1.43808
1.35198
1.27641
1.20985
1.15099
1.09859
1.05138
1.00833
0.968636
0.932064
0.898101
0.866667
0.837127
0.809266
0.782994
0.75803
0.734404
0.711713
1.7439
1.60528
1.51389
1.4959
2.90776
5.00521
1.70199
1.56245
1.44532
1.345
1.27699
1.2436
1.66722
4.99444
7.76144
8.15196
6.76323
5.81284
5.44242
4.42969
1.63745
1.51559
1.4107
1.3196
1.24316
1.19547
1.38248
2.39949
17.6385
7.32629
5.28788
4.13737
2.72088
2.60346
2.0927
1.63872
1.51759
1.41314
1.32257
1.24589
1.18951
1.23906
1.52209
2.38308
4.53809
10.9778
2.88265
2.38538
2.01247
1.73918
1.54745
1.3992
1.27833
1.64007
1.51987
1.41614
1.32608
1.24903
1.18847
1.17694
1.30805
1.56068
1.78366
1.89191
1.75711
1.40277
1.29449
1.19565
1.11061
1.03872
0.97748
0.923527
0.87629
1.6413
1.52199
1.41893
1.32933
1.25215
1.18874
1.15245
1.18243
1.22618
1.24402
1.21458
1.16614
1.09985
1.04166
0.987793
0.938992
0.895212
0.85547
0.818899
0.785481
1.64239
1.5239
1.42145
1.33229
1.25514
1.1905
1.14216
1.12674
1.12419
1.11396
1.08073
1.03976
0.992933
0.950418
0.910721
0.87351
0.838978
0.80664
0.77629
0.74802
1.64338
1.52562
1.42373
1.33498
1.25797
1.19258
1.13879
1.10292
1.07694
1.05083
1.01729
0.981804
0.943441
0.907479
0.873542
0.84119
0.810737
0.781875
0.754575
0.728886
1.64426
1.52718
1.4258
1.33743
1.26057
1.19472
1.13847
1.09384
1.05708
1.02323
0.988329
0.953496
0.919257
0.884814
0.853599
0.823752
0.795518
0.768588
0.742994
0.718733
1.64506
1.52859
1.42767
1.33966
1.26296
1.19682
1.13939
1.091
1.04935
1.01162
0.975274
0.94001
0.906956
0.874548
0.844492
0.81572
0.788429
0.762339
0.737518
0.71389
1.64579
1.52988
1.42938
1.34169
1.26514
1.19877
1.14075
1.09047
1.04649
1.00668
0.969236
0.933792
0.900729
0.868878
0.839277
0.810991
0.784177
0.758579
0.734242
0.710993
1.64646
1.53106
1.43094
1.34354
1.26716
1.20068
1.14229
1.09097
1.04572
1.00467
0.966455
0.930884
0.897525
0.86592
0.836529
0.808547
0.782023
0.75672
0.732677
0.709647
1.64707
1.53215
1.43238
1.34525
1.26909
1.2025
1.14386
1.09197