/*--------------------------------*- C++ -*----------------------------------*\
  =========                 |
  \\      /  F ield         | OpenFOAM: The Open Source CFD Toolbox
   \\    /   O peration     | Website:  https://openfoam.org
    \\  /    A nd           | Version:  10
     \\/     M anipulation  |
\*---------------------------------------------------------------------------*/
FoamFile
{
    format      ascii;
    class       volScalarField;
    location    "2000";
    object      p;
}
// * * * * * * * * * * * * * * * * * * * * * * * * * * * * * * * * * * * * * //

dimensions      [0 2 -2 0 0 0 0];

internalField   nonuniform List<scalar> 
55398
(
72.2154
59.4201
65.9796
69.3596
76.2916
91.8146
64.2034
59.7826
63.2513
67.6805
74.5607
88.2575
108.014
133.971
-64.4505
-25.2732
-12.4685
6.52805
4.44792
1.06423
59.8209
58.6108
60.6594
64.6468
70.0828
77.8457
81.8604
70.552
-103.982
-61.6775
-30.5008
-12.8948
-1.43702
-2.4521
-0.759882
57.2848
56.5141
57.5582
60.1649
62.8739
64.2046
56.2696
28.5239
-131.066
-223.957
-109.795
-94.5603
-57.2424
-33.3209
-16.4134
-6.51442
-4.47573
-1.59993
54.6167
54.0274
54.2749
55.2793
55.3186
51.6661
36.6781
-15.0555
-114.767
-195.86
-240.519
-188.151
-116.694
-81.7807
-57.5146
-36.3053
-20.3308
-9.79523
-6.04207
-2.3368
51.8906
51.3396
50.8695
50.3582
48.1141
41.0384
22.9828
-23.1476
-111.534
-167.102
-191.289
-152.19
-103.338
-77.3718
-57.0095
-38.3508
-23.1732
-12.4852
-7.28609
-2.85167
49.1638
48.5593
47.449
45.6157
41.5188
32.2721
12.8683
-26.2829
-92.3848
-140.541
-154.038
-135.317
-98.8092
-74.1234
-56.4204
-39.7024
-25.3557
-14.6589
-8.33658
-3.26042
46.4932
45.7791
44.1155
41.1929
35.6426
25.1139
5.62664
-28.1207
-79.5817
-120.121
-133.388
-121.635
-94.407
-71.7418
-55.3772
-40.3274
-26.8616
-16.3014
-9.15779
-3.57618
43.9257
43.0526
40.9113
37.1469
30.5991
19.3434
0.327609
-29.1069
-70.0366
-104.058
-116.869
-109.773
-89.2156
-69.3373
-54.0925
-40.4982
-27.9075
-17.5806
-9.83019
-3.83982
41.5099
40.4744
37.9346
33.5166
26.2816
14.6606
-3.43141
-29.4645
-62.8647
-91.3579
-103.482
-99.6575
-84.2391
-67.1897
-53.0639
-40.4889
-28.6599
-18.57
-10.3856
-4.03842
39.2823
38.1207
35.2651
30.3491
22.6291
10.9174
-6.25513
-29.4769
-57.3431
-81.3723
-92.7701
-91.2247
-79.6098
-65.0947
-52.0122
-40.2466
-29.0801
-19.2436
-10.7791
-4.1844
37.2672
36.0024
32.8971
27.6119
19.5799
7.91934
-8.30182
-29.2068
-53.0348
-73.6028
-84.2333
-84.1813
-75.412
-63.1433
-51.0318
-39.9726
-29.3178
-19.7558
-11.1133
-4.31898
35.4922
34.1455
30.8476
25.2974
17.0798
5.5757
-9.79396
-28.8305
-49.6474
-67.6265
-77.4659
-78.3879
-71.7518
-61.327
-50.1867
-39.6365
-29.4163
-20.0948
-11.3491
-4.40855
33.98
32.5706
29.1286
23.3941
15.0913
3.75697
-10.8729
-28.4464
-46.9759
-63.0541
-72.2301
-73.7141
-68.7146
-59.7324
-49.3985
-39.3102
-29.4337
-20.3219
-11.527
-4.48279
32.7487
31.2931
27.7473
21.8858
13.5333
2.40064
-11.6478
-28.125
-44.9566
-59.5632
-68.1839
-70.0989
-66.3196
-58.4355
-48.7631
-39.045
-29.4188
-20.4719
-11.6557
-4.53542
31.8124
30.3243
26.7076
20.7627
12.3904
1.41352
-12.1896
-27.8313
-43.566
-56.9907
-65.1932
-67.5392
-64.5693
-57.4525
-48.2831
-38.8286
-29.3826
-20.5615
-11.7421
-4.57172
31.1819
29.673
26.012
20.0182
11.6435
0.762548
-12.5262
-27.6324
-42.6311
-55.3875
-63.4343
-65.7622
-63.3434
-56.7558
-47.9314
-38.6729
-29.3397
-20.6072
-11.7929
-4.592
30.8645
29.3452
25.663
19.6464
11.2678
0.437525
-12.6981
-27.5558
-42.1723
-54.6302
-62.5842
-64.8245
-62.7266
-56.4101
-47.7632
-38.5973
-29.3213
-20.6329
-11.8217
-4.60508
72.0344
59.5267
65.8809
69.0194
76.9896
92.8576
64.0873
59.759
63.0864
67.5303
74.4944
88.0294
108.584
139.347
-64.8944
-28.3634
-13.5517
6.61892
4.5153
4.91487
59.7712
58.5403
60.5111
64.445
69.7635
77.2479
80.1929
72.0345
-94.102
-66.651
-32.861
-13.6247
-1.68894
-1.86061
0.230863
57.2513
56.425
57.4149
59.9574
62.5507
63.6642
55.1249
29.2717
-138.409
-216.129
-108.188
-82.2375
-58.3196
-34.0952
-16.775
-6.42923
-4.86526
-1.50322
54.5858
53.9353
54.1331
55.0665
55.0159
51.2225
35.782
-14.6889
-111.977
-192.418
-235.148
-188.681
-108.215
-80.6584
-58.1383
-36.8107
-20.5038
-9.8536
-6.15345
-2.32348
51.8639
51.2499
50.733
50.1584
47.8452
40.665
22.41
-23.0023
-110.383
-165.917
-181.192
-151.344
-102.997
-76.6085
-57.0818
-38.5529
-23.2656
-12.5422
-7.33127
-2.85226
49.1401
48.4754
47.3199
45.4544
41.3207
32.0553
12.5413
-26.3512
-91.7366
-139.405
-153.417
-134.326
-98.4444
-73.7778
-56.4293
-39.8518
-25.4458
-14.7314
-8.34825
-3.2743
46.4721
45.7042
44.0006
41.0662
35.5396
24.9759
5.53232
-28.0784
-79.1169
-119.198
-132.714
-121.112
-94.3775
-71.7115
-55.3436
-40.3985
-26.9079
-16.338
-9.15709
-3.57578
43.9154
43.0143
40.8492
37.0674
30.5331
19.2982
0.325285
-29.0845
-69.8271
-103.47
-116.311
-109.378
-89.1634
-69.3049
-54.0839
-40.5152
-27.9387
-17.6159
-9.84087
-3.83636
41.5068
40.4686
37.9221
33.4887
26.2467
14.6415
-3.44101
-29.4649
-62.7497
-91.0121
-103.069
-99.3662
-84.2358
-67.2192
-53.0824
-40.5233
-28.6927
-18.6027
-10.3935
-4.04397
39.2796
38.1174
35.2584
30.3312
22.6071
10.9097
-6.26443
-29.4594
-57.2536
-81.2135
-92.5234
-90.9781
-79.5988
-65.1167
-52.0182
-40.2739
-29.085
-19.2669
-10.7869
-4.18979
37.2652
35.9997
32.8922
27.5995
19.5652
7.90997
-8.29652
-29.1905
-53.0034
-73.5296
-84.1185
-84.0158
-75.3622
-63.1955
-51.0343
-40.0051
-29.3446
-19.784
-11.1287
-4.3285
35.4908
34.1435
30.8442
25.289
17.0712
5.57218
-9.78742
-28.8194
-49.6223
-67.5613
-77.4015
-78.2835
-71.7218
-61.3603
-50.2393
-39.6745
-29.4444
-20.1173
-11.3618
-4.41592
33.979
32.5692
29.1264
23.3881
15.085
3.76322
-10.8678
-28.4377
-46.9539
-63.0063
-72.1915
-73.6501
-68.6931
-59.7558
-49.4343
-39.3408
-29.448
-20.3338
-11.5347
-4.48734
32.7481
31.2922
27.746
21.8824
13.533
2.40758
-11.6409
-28.114
-44.9454
-59.5337
-68.1675
-70.0614
-66.3035
-58.4497
-48.7846
-39.0609
-29.4239
-20.4783
-11.6615
-4.5388
31.8121
30.3239
26.7069
20.7615
12.3936
1.41367
-12.1833
-27.8246
-43.5556
-56.9824
-65.1786
-67.5143
-64.5613
-57.4622
-48.2908
-38.8383
-29.3829
-20.5644
-11.7461
-4.57386
31.1818
29.6728
26.0118
20.0178
11.6428
0.764193
-12.5233
-27.6291
-42.626
-55.383
-63.4168
-65.7534
-63.3412
-56.7618
-47.9344
-38.6723
-29.3387
-20.6083
-11.7959
-4.59313
30.8645
29.3452
25.663
19.6462
11.2677
0.438473
-12.6971
-27.5544
-42.1703
-54.6283
-62.5799
-64.82
-62.7233
-56.4119
-47.7646
-38.5916
-29.3222
-20.6343
-11.8247
-4.60584
71.9996
59.5714
65.8594
68.7818
76.8936
93.0617
64.0843
59.7721
63.0732
67.4451
74.4184
87.8434
106.76
133.823
-71.8572
-33.1816
-14.3223
3.74704
4.71141
4.44558
59.7705
58.5393
60.5156
64.3998
69.6739
76.9299
78.5135
67.4241
-89.0577
-70.6867
-35.1651
-14.79
-2.69701
-1.86058
0.108372
57.2457
56.4158
57.4151
59.9093
62.4468
63.3763
54.067
27.3139
-135.955
-216.52
-112.274
-80.7004
-59.9071
-35.1294
-17.146
-6.92692
-5.154
-1.52937
54.579
53.9249
54.1328
55.0264
54.9227
51.022
35.1062
-14.5341
-110.302
-192.491
-232.505
-187.102
-106.07
-78.9282
-58.7851
-37.4796
-20.7003
-10.1389
-6.33376
-2.3483
51.8575
51.2393
50.7329
50.1245
47.7703
40.5203
22.0459
-22.9073
-109.703
-165.336
-180.331
-150.477
-101.768
-75.4309
-57.2406
-38.9584
-23.4183
-12.731
-7.42836
-2.87864
49.1341
48.4645
47.3223
45.4256
41.2651
31.9635
12.3933
-26.1847
-91.1279
-138.84
-153.023
-133.756
-97.942
-73.0776
-56.4041
-40.1305
-25.5691
-14.8562
-8.39658
-3.28624
46.4666
45.6942
44.0009
41.0432
35.5039
24.9791
5.4398
-27.9188
-78.6426
-118.78
-132.393
-120.758
-94.0976
-71.4359
-55.3626
-40.556
-26.9791
-16.412
-9.1753
-3.5738
43.9113
43.0052
40.8421
37.0401
30.4921
19.2637
0.344509
-28.9643
-69.4903
-103.136
-116.048
-109.103
-88.9533
-69.0914
-54.0146
-40.5594
-27.9626
-17.6548
-9.83991
-3.82734
41.5039
40.4603
37.9083
33.4533
26.1946
14.6126
-3.43397
-29.3751
-62.5058
-90.7392
-102.847
-99.1047
-84.0067
-67.0474
-53.0009
-40.5308
-28.6984
-18.6216
-10.3844
-4.03
39.2774
38.1107
35.2453
30.2995
22.562
10.8689
-6.22724
-29.3847
-57.1334
-81.0197
-92.3548
-90.7334
-79.3866
-64.9893
-51.9376
-40.2533
-29.07
-19.2687
-10.7702
-4.17165
37.2634
35.9946
32.8821
27.5752
19.5324
7.89389
-8.28403
-29.1501
-52.9245
-73.4017
-84.0031
-83.8053
-75.1902
-63.0609
-50.9673
-39.9629
-29.3157
-19.7731
-11.1086
-4.3086
35.4895
34.1397
30.837
25.2715
17.0506
5.56088
-9.777
-28.7861
-49.5646
-67.4738
-77.3277
-78.1241
-71.6042
-61.2609
-50.1445
-39.6315
-29.4126
-20.1013
-11.3415
-4.39759
33.9782
32.5666
29.1216
23.3759
15.0707
3.7691
-10.8525
-28.4095
-46.9118
-62.9499
-72.1452
-73.5577
-68.6188
-59.719
-49.3681
-39.322
-29.4302
-20.3246
-11.5223
-4.47441
32.7476
31.2906
27.7432
21.8753
13.5315
2.41457
-11.6219
-28.0911
-44.9152
-59.4976
-68.1308
-70.0101
-66.2749
-58.4325
-48.7736
-39.0534
-29.4126
-20.4725
-11.6535
-4.52891
31.8119
30.323
26.7056
20.7582
12.3935
1.42112
-12.1682
-27.8073
-43.5382
-56.9572
-65.1583
-67.4891
-64.5441
-57.4518
-48.282
-38.8307
-29.3738
-20.5603
-11.7419
-4.56717
31.1818
29.6725
26.0115
20.0166
11.6432
0.769224
-12.5132
-27.6181
-42.6144
-55.3685
-63.4115
-65.7377
-63.3291
-56.7544
-47.9244
-38.6678
-29.3349
-20.6068
-11.7946
-4.58879
30.8646
29.3451
25.6631
19.646
11.2682
0.440252
-12.6937
-27.5511
-42.1652
-54.6223
-62.5751
-64.8111
-62.7165
-56.4085
-47.7605
-38.5826
-29.3223
-20.6345
-11.8252
-4.60301
72.0007
59.5759
65.8757
68.7204
76.8716
93.1669
64.0903
59.7726
63.0859
67.4222
74.419
87.8961
106.784
133.742
-74.6446
-37.9181
-15.536
1.84924
5.21842
4.16282
59.7754
58.541
60.5258
64.3973
69.6746
76.9635
78.6123
68.2166
-84.6189
-73.9282
-38.5298
-16.3374
-3.56806
-1.59257
0.103081
57.2499
56.4181
57.4248
59.9135
62.4516
63.449
54.3137
28.3968
-135.908
-216.172
-112.673
-78.8398
-61.5422
-36.6253
-17.6742
-7.42428
-5.23443
-1.41401
54.5825
53.928
54.142
55.0344
54.9302
51.1037
35.2877
-14.3011
-110.036
-192.262
-231.658
-185.895
-104.136
-77.64
-59.5568
-38.4185
-21.0125
-10.4404
-6.40547
-2.2662
51.8608
51.2427
50.7416
50.1327
47.7792
40.5867
22.1541
-22.7365
-109.682
-165.28
-180.198
-150.121
-100.739
-74.5229
-57.575
-39.5721
-23.6608
-12.946
-7.50095
-2.85848
49.137
48.4679
47.3304
45.432
41.2747
32.0189
12.484
-26.067
-91.1646
-138.924
-153.058
-133.606
-97.2674
-72.4769
-56.5258
-40.5244
-25.7541
-14.9991
-8.47071
-3.28866
46.469
45.6972
44.0072
41.0485
35.5149
25.0176
5.51136
-27.8572
-78.6675
-118.898
-132.424
-120.72
-93.6802
-71.0575
-55.4168
-40.8102
-27.1211
-16.532
-9.23168
-3.59009
43.9128
43.0074
40.8475
37.0462
30.5048
19.288
0.386883
-28.9385
-69.5225
-103.238
-116.071
-109.152
-88.76
-68.8437
-54.0434
-40.7245
-28.0752
-17.7532
-9.89136
-3.84934
41.5046
40.4616
37.9128
33.4607
26.2102
14.6388
-3.40387
-29.3601
-62.5252
-90.8132
-102.88
-99.118
-83.9021
-66.9594
-53.037
-40.6551
-28.7952
-18.705
-10.4306
-4.0538
39.2778
38.1114
35.2486
30.3058
22.5751
10.8946
-6.20316
-29.3755
-57.144
-81.0574
-92.3896
-90.761
-79.3058
-64.957
-51.9644
-40.3359
-29.1426
-19.3328
-10.8077
-4.19352
37.2637
35.995
32.8843
27.5799
19.5428
7.91343
-8.26657
-29.1431
-52.9282
-73.421
-84.0193
-83.8341
-75.1863
-63.0216
-50.9985
-40.0145
-29.3708
-19.8264
-11.1419
-4.33025
35.4896
34.1399
30.8384
25.2748
17.0586
5.57323
-9.76615
-28.7812
-49.567
-67.4869
-77.3345
-78.1421
-71.6104
-61.231
-50.1151
-39.6624
-29.449
-20.1394
-11.366
-4.41384
33.9782
32.5667
29.1226
23.3781
15.0769
3.77731
-10.846
-28.4083
-46.9154
-62.9601
-72.1517
-73.5657
-68.6207
-59.6901
-49.3434
-39.3368
-29.4549
-20.3513
-11.5395
-4.48661
32.7476
31.2906
27.7437
21.8767
13.5362
2.41979
-11.6189
-28.0934
-44.9191
-59.5056
-68.1343
-70.0133
-66.2739
-58.4088
-48.7521
-39.0589
-29.4267
-20.4892
-11.6639
-4.53669
31.8119
30.3231
26.7058
20.7591
12.396
1.42357
-12.1681
-27.8108
-43.5427
-56.9607
-65.1617
-67.4918
-64.5426
-57.4362
-48.2648
-38.8326
-29.3822
-20.5712
-11.7483
-4.5723
31.1818
29.6725
26.0115
20.017
11.6441
0.769896
-12.5137
-27.6203
-42.6169
-55.37
-63.4146
-65.7382
-63.328
-56.7449
-47.9113
-38.6688
-29.3403
-20.6135
-11.7976
-4.59169
30.8646
29.3451
25.6631
19.6462
11.2684
0.440514
-12.6938
-27.5517
-42.1658
-54.6221
-62.5741
-64.8099
-62.7159
-56.4051
-47.7524
-38.581
-29.3279
-20.6403
-11.8274
-4.60532
72.001
59.5775
65.8858
68.705
76.8658
93.2206
64.0928
59.7738
63.0928
67.4124
74.4177
87.9359
106.801
133.741
-76.3923
-43.2555
-17.9114
-0.777272
4.63043
3.39499
59.7783
58.5416
60.5311
64.3964
69.6734
77.0071
78.5762
68.0913
-78.7722
-75.9122
-42.3291
-18.0581
-4.21996
-1.23736
0.159505
57.2531
56.4187
57.4291
59.9159
62.447
63.4969
54.2671
28.1968
-135.74
-216.025
-110.352
-76.3396
-62.7419
-38.1537
-18.221
-7.72503
-5.26481
-1.2518
54.5859
53.9289
54.1456
55.0389
54.9286
51.1457
35.2421
-14.3796
-110.162
-192.09
-231.114
-185.203
-102.378
-76.2086
-60.1124
-39.3374
-21.3204
-10.6124
-6.40315
-2.1661
51.864
51.2438
50.7446
50.1373
47.7796
40.615
22.1234
-22.8169
-109.72
-165.132
-179.922
-149.549
-99.7577
-73.7148
-57.8113
-40.1285
-23.866
-13.0505
-7.49722
-2.79563
49.14
48.4689
47.3329
45.4357
41.2763
32.0364
12.4723
-26.1214
-91.2225
-138.823
-152.886
-133.199
-96.4056
-71.9995
-56.5479
-40.8225
-25.8731
-15.0471
-8.45224
-3.23683
46.4715
45.6981
44.0091
41.0513
35.5163
25.0282
5.5122
-27.8943
-78.7041
-118.847
-132.254
-120.506
-93.0821
-70.5573
-55.3473
-40.9632
-27.1879
-16.5491
-9.20531
-3.54824
43.9146
43.0082
40.8493
37.0485
30.5055
19.2908
0.384329
-28.9602
-69.5425
-103.212
-115.925
-109.049
-88.4016
-68.4819
-53.9874
-40.8069
-28.1108
-17.7549
-9.86297
-3.8123
41.5059
40.4624
37.9146
33.4627
26.2091
14.6372
-3.4092
-29.3739
-62.5366
-90.7948
-102.781
-99.0454
-83.6777
-66.7681
-52.9886
-40.6916
-28.8101
-18.6988
-10.4027
-4.02159
39.2786
38.1121
35.2501
30.3072
22.5742
10.8918
-6.21123
-29.3849
-57.1499
-81.048
-92.3231
-90.7169
-79.1613
-64.8166
-51.911
-40.3432
-29.1442
-19.3229
-10.7824
-4.16636
37.2642
35.9954
32.8853
27.5809
19.542
7.91089
-8.27265
-29.1498
-52.9335
-73.4172
-83.9717
-83.813
-75.0811
-62.9114
-50.9517
-40.0151
-29.371
-19.819
-11.122
-4.30847
35.49
34.1402
30.8391
25.2755
17.0582
5.57106
-9.77062
-28.7851
-49.5704
-67.4846
-77.2999
-78.1305
-71.5391
-61.1518
-50.0804
-39.6617
-29.4496
-20.135
-11.3519
-4.39711
33.9785
32.5668
29.123
23.3787
15.0766
3.77537
-10.8485
-28.409
-46.918
-62.9538
-72.1285
-73.5559
-68.5751
-59.6085
-49.3222
-39.3268
-29.4517
-20.3474
-11.5291
-4.47431
32.7478
31.2907
27.744
21.8771
13.5362
2.41892
-11.6204
-28.0903
-44.92
-59.4997
-68.1279
-70.0053
-66.244
-58.3531
-48.7056
-39.0466
-29.4231
-20.4865
-11.657
-4.5279
31.812
30.3231
26.706
20.7594
12.3961
1.42298
-12.1687
-27.8103
-43.5375
-56.9632
-65.1515
-67.4793
-64.5246
-57.4
-48.2341
-38.8276
-29.3823
-20.5717
-11.7454
-4.56715
31.1818
29.6725
26.0116
20.0173
11.6441
0.769569
-12.5138
-27.6194
-42.6136
-55.3686
-63.394
-65.7329
-63.32
-56.7232
-47.893
-38.6666
-29.3408
-20.6146
-11.7963
-4.5885
30.8646
29.3451
25.6631
19.6464
11.2684
0.440506
-12.6937
-27.5509
-42.1637
-54.619
-62.5669
-64.8039
-62.7104
-56.3933
-47.735
-38.5815
-29.3294
-20.6425
-11.8273
-4.60342
72.0014
59.5789
65.8911
68.7002
76.8648
93.2497
64.0942
59.775
63.0967
67.4085
74.4174
87.9607
106.806
133.691
-75.5218
-46.388
-19.907
-3.19988
2.54667
2.42675
59.7802
58.5423
60.5342
64.3961
69.6744
77.0285
78.5614
68.0913
-73.1547
-75.9381
-44.8177
-19.3277
-4.66563
-1.1423
0.272717
57.2551
56.4193
57.4321
59.9175
62.4473
63.5167
54.2612
28.23
-135.648
-215.889
-108.044
-74.0906
-63.3056
-39.1977
-18.6316
-7.90506
-5.30611
-1.09747
54.5881
53.9297
54.1483
55.0418
54.9299
51.1641
35.2426
-14.3543
-110.038
-191.945
-230.703
-184.62
-100.808
-74.8798
-60.4053
-40.0637
-21.624
-10.7558
-6.44207
-2.1203
51.8662
51.2447
50.747
50.1407
47.7818
40.63
22.1229
-22.7927
-109.653
-164.979
-179.649
-149.093
-98.9403
-73.0318
-57.9661
-40.6041
-24.09
-13.1689
-7.54113
-2.78502
49.1421
48.4697
47.335
45.439
41.2786
32.0474
12.4741
-26.1041
-91.1715
-138.699
-152.708
-132.889
-95.9366
-71.6543
-56.6551
-41.1558
-26.0632
-15.1556
-8.50549
-3.25107
46.4732
45.6988
44.0108
41.0541
35.5183
25.0362
5.51765
-27.8842
-78.6675
-118.761
-132.125
-120.319
-92.7922
-70.386
-55.4454
-41.2049
-27.3432
-16.6403
-9.25549
-3.56796
43.916
43.0089
40.8508
37.0507
30.5072
19.2957
0.389652
-28.9527
-69.5186
-103.153
-115.833
-108.943
-88.2209
-68.3952
-54.0621
-40.9682
-28.2245
-17.8254
-9.90513
-3.83443
41.5068
40.463
37.9157
33.4643
26.2102
14.6405
-3.40364
-29.3668
-62.5207
-90.755
-102.715
-98.9832
-83.5699
-66.7157
-53.036
-40.7975
-28.8942
-18.7561
-10.4396
-4.04354
39.2793
38.1125
35.2509
30.3083
22.5747
10.894
-6.20636
-29.3779
-57.1376
-81.0227
-92.2736
-90.6803
-79.0955
-64.7826
-51.942
-40.4153
-29.2061
-19.3675
-10.812
-4.18481
37.2647
35.9958
32.8859
27.5816
19.5422
7.91243
-8.26893
-29.1438
-52.9244
-73.4002
-83.935
-83.789
-75.0364
-62.8908
-50.9739
-40.0666
-29.4165
-19.8533
-11.1454
-4.32375
35.4903
34.1404
30.8395
25.276
17.0583
5.57208
-9.768
-28.7805
-49.5637
-67.4738
-77.2728
-78.114
-71.5093
-61.1387
-50.0966
-39.6946
-29.4803
-20.1592
-11.3683
-4.40819
33.9786
32.5669
29.1233
23.379
15.0767
3.77588
-10.8463
-28.406
-46.9102
-62.9508
-72.1081
-73.5447
-68.5564
-59.5985
-49.334
-39.3513
-29.4759
-20.3674
-11.543
-4.48348
32.7479
31.2907
27.7442
21.8773
13.5363
2.41925
-11.6183
-28.0904
-44.9131
-59.4975
-68.1061
-69.9949
-66.2335
-58.3452
-48.7136
-39.0665
-29.4426
-20.5025
-11.6678
-4.53477
31.8121
30.3231
26.7061
20.7595
12.3962
1.42327
-12.1677
-27.8079
-43.5372
-56.9535
-65.1429
-67.4767
-64.5168
-57.3904
-48.2376
-38.8404
-29.3951
-20.5825
-11.7525
-4.57151
31.1818
29.6725
26.0116
20.0174
11.6442
0.769699
-12.5131
-27.6177
-42.6121
-55.3633
-63.4003
-65.727
-63.3121
-56.7114
-47.8922
-38.6731
-29.3481
-20.6216
-11.8009
-4.59103
30.8646
29.3451
25.6632
19.6465
11.2685
0.440642
-12.6931
-27.5497
-42.1619
-54.6161
-62.5643
-64.798
-62.7058
-56.3866
-47.7275
-38.5867
-29.3349
-20.6484
-11.8312
-4.60536
72.002
59.5802
65.8939
68.6985
76.8652
93.2666
64.0952
59.776
63.0989
67.4071
74.4181
87.9752
106.81
133.691
-73.6954
-46.8878
-20.4135
-4.12198
0.992696
1.81748
59.7815
58.543
60.5358
64.3963
69.6757
77.0408
78.5607
68.0809
-68.768
-75.0787
-45.4006
-19.6315
-4.72182
-0.858594
0.418313
57.2565
56.4201
57.4338
59.9185
62.4486
63.5289
54.2626
28.2326
-135.579
-215.784
-106.217
-72.8305
-63.3781
-39.6012
-18.7804
-7.93758
-5.22586
-0.950127
54.5896
53.9305
54.15
55.0436
54.9316
51.1758
35.2473
-14.3433
-110.001
-191.826
-230.395
-184.158
-99.7958
-74.0627
-60.5054
-40.4755
-21.8127
-10.8144
-6.41057
-2.05032
51.8678
51.2455
50.7487
50.143
47.7836
40.6398
22.1276
-22.7852
-109.616
-164.88
-179.442
-148.76
-98.3605
-72.5695
-58.0222
-40.8841
-24.2173
-13.2096
-7.52069
-2.73648
49.1435
48.4705
47.3365
45.4412
41.2802
32.0547
12.479
-26.0972
-91.1458
-138.632
-152.577
-132.658
-95.5826
-71.36
-56.6634
-41.3326
-26.155
-15.1887
-8.4941
-3.21803
46.4745
45.6995
44.0121
41.056
35.5198
25.0413
5.52302
-27.8777
-78.6492
-118.715
-132.034
-120.163
-92.5806
-70.2065
-55.4328
-41.3106
-27.4041
-16.6591
-9.24292
-3.53996
43.9169
43.0094
40.8518
37.0522
30.5085
19.2993
0.394064
-28.9478
-69.5054
-103.12
-115.768
-108.844
-88.0869
-68.2861
-54.0497
-41.0333
-28.2667
-17.8379
-9.89535
-3.81337
41.5075
40.4634
37.9166
33.4655
26.2111
14.6428
-3.40021
-29.3632
-62.5114
-90.7305
-102.67
-98.921
-83.4834
-66.6461
-53.0288
-40.839
-28.924
-18.7651
-10.4321
-4.02708
39.2798
38.1129
35.2515
30.3092
22.5753
10.8958
-6.2037
-29.375
-57.1312
-81.006
-92.2412
-90.642
-79.0411
-64.7373
-51.9351
-40.4393
-29.2247
-19.3724
-10.8049
-4.17147
37.265
35.996
32.8864
27.5823
19.5426
7.91366
-8.26691
-29.1414
-52.92
-73.3889
-83.9112
-83.765
-75.0021
-62.8613
-50.9672
-40.0805
-29.4285
-19.857
-11.1404
-4.31404
35.4905
34.1405
30.8398
25.2764
17.0586
5.57295
-9.76653
-28.7784
-49.5603
-67.4658
-77.2548
-78.0984
-71.4879
-61.1195
-50.0911
-39.702
-29.4879
-20.1618
-11.3647
-4.40087
33.9788
32.567
29.1235
23.3793
15.077
3.77645
-10.8452
-28.4039
-46.9084
-62.9437
-72.0945
-73.5348
-68.5431
-59.5855
-49.3282
-39.3545
-29.4796
-20.3683
-11.5394
-4.47756
32.748
31.2908
27.7443
21.8775
13.5365
2.41976
-11.6176
-28.0875
-44.912
-59.4916
-68.0995
-69.9901
-66.2243
-58.3357
-48.7094
-39.0666
-29.4434
-20.5019
-11.6642
-4.53003
31.8121
30.3231
26.7062
20.7597
12.3963
1.42361
-12.1669
-27.8065
-43.5343
-56.9522
-65.137
-67.47
-64.509
-57.3825
-48.2352
-38.8409
-29.3962
-20.583
-11.7509
-4.56873
31.1819
29.6725
26.0117
20.0175
11.6443
0.769944
-12.5124
-27.6166
-42.61
-55.3617
-63.3916
-65.7201
-63.3055
-56.7046
-47.8912
-38.6747
-29.35
-20.6232
-11.8006
-4.58934
30.8646
29.3452
25.6632
19.6466
11.2686
0.440862
-12.6926
-27.5487
-42.1603
-54.6138
-62.5604
-64.7914
-62.7006
-56.3819
-47.7241
-38.5885
-29.3369
-20.6503
-11.8314
-4.6042
72.0026
59.5811
65.8954
68.6981
76.8659
93.2764
64.096
59.7768
63.1
67.4067
74.419
87.9837
106.812
133.71
-73.2175
-46.7942
-20.0413
-3.72761
1.08983
1.79012
59.7823
58.5436
60.5368
64.3967
69.6767
77.0485
78.5625
68.0943
-68.5759
-74.8984
-45.3237
-19.4264
-4.58236
-0.528898
0.489885
57.2574
56.4206
57.4348
59.9193
62.4496
63.5363
54.2656
28.236
-135.536
-215.701
-105.638
-73.0411
-63.271
-39.6812
-18.879
-7.96623
-5.10133
-0.886888
54.5905
53.9311
54.151
55.0448
54.9329
51.1827
35.2514
-14.3338
-109.961
-191.731
-230.18
-183.875
-99.5917
-74.0353
-60.5321
-40.6321
-21.9213
-10.8696
-6.35755
-2.0104
51.8687
51.2461
50.7496
50.1443
47.7849
40.6459
22.1316
-22.778
-109.581
-164.798
-179.285
-148.557
-98.1253
-72.4661
-58.0645
-41.028
-24.3081
-13.2632
-7.50816
-2.71877
49.1444
48.471
47.3373
45.4426
41.2815
32.0595
12.4831
-26.0911
-91.1206
-138.569
-152.464
-132.489
-95.3815
-71.2392
-56.69
-41.4542
-26.2409
-15.2436
-8.50534
-3.21622
46.4753
45.7
44.0128
41.0572
35.5209
25.045
5.527
-27.8722
-78.6312
-118.671
-131.949
-120.039
-92.4382
-70.1061
-55.4457
-41.4044
-27.4772
-16.705
-9.25976
-3.54413
43.9176
43.0099
40.8524
37.0532
30.5094
19.3019
0.397449
-28.9432
-69.4924
-103.088
-115.708
-108.758
-87.988
-68.2117
-54.0538
-41.099
-28.3226
-17.8735
-9.91181
-3.82003
41.508
40.4638
37.9171
33.4663
26.2118
14.6446
-3.39751
-29.3594
-62.5017
-90.7073
-102.629
-98.863
-83.4155
-66.5938
-53.0296
-40.8831
-28.965
-18.7923
-10.4463
-4.03402
39.2801
38.1132
35.2519
30.3098
22.5759
10.897
-6.2016
-29.3719
-57.1239
-80.9896
-92.2116
-90.6033
-78.9959
-64.7016
-51.9337
-40.4677
-29.2538
-19.3929
-10.8164
-4.17772
37.2653
35.9962
32.8866
27.5827
19.543
7.91449
-8.26537
-29.1389
-52.9146
-73.3774
-83.8899
-83.7396
-74.972
-62.8366
-50.9648
-40.099
-29.4495
-19.8728
-11.15
-4.31948
35.4906
34.1407
30.84
25.2767
17.0589
5.57353
-9.76539
-28.7766
-49.556
-67.4583
-77.2392
-78.0812
-71.4679
-61.1025
-50.0887
-39.7141
-29.5027
-20.1737
-11.3721
-4.40514
33.9789
32.5671
29.1236
23.3795
15.0772
3.77681
-10.8442
-28.403
-46.9033
-62.9405
-72.0825
-73.5231
-68.5306
-59.5743
-49.326
-39.3624
-29.4902
-20.3776
-11.5456
-4.48129
32.748
31.2908
27.7444
21.8777
13.5367
2.41997
-11.6166
-28.0882
-44.9073
-59.4888
-68.0862
-69.9804
-66.2168
-58.3291
-48.7085
-39.072
-29.4511
-20.5093
-11.6695
-4.53317
31.8121
30.3232
26.7062
20.7598
12.3965
1.42386
-12.1663
-27.8056
-43.5337
-56.945
-65.1313
-67.4655
-64.5031
-57.3777
-48.2349
-38.8444
-29.4016
-20.5885
-11.7547
-4.57095
31.1819
29.6726
26.0117
20.0176
11.6445
0.770168
-12.512
-27.6156
-42.609
-55.3574
-63.395
-65.7142
-63.2994
-56.7003
-47.8913
-38.677
-29.3535
-20.6269
-11.8031
-4.5907
30.8646
29.3452
25.6632
19.6467
11.2687
0.441048
-12.6922
-27.5478
-42.159
-54.6114
-62.5582
-64.7861
-62.6959
-56.379
-47.7253
-38.5908
-29.34
-20.6536
-11.8337
-4.60539
72.0031
59.5818
65.8962
68.698
76.8667
93.2819
64.0965
59.7774
63.1007
67.4067
74.4199
87.9884
106.814
133.703
-74.7608
-46.2433
-19.7401
-3.33563
1.76318
1.87457
59.7828
58.5439
60.5373
64.397
69.6775
77.0524
78.5648
68.094
-72.9453
-74.8917
-44.419
-19.16
-4.6018
-0.574285
0.366919
57.258
56.421
57.4353
59.9198
62.4504
63.5406
54.2679
28.243
-135.512
-215.622
-106.496
-74.3661
-62.918
-39.4381
-18.9685
-8.07763
-5.00536
-0.951945
54.5911
53.9315
54.1516
55.0455
54.9338
51.1868
35.2543
-14.3265
-109.933
-191.679
-230.039
-183.745
-100.032
-74.6222
-60.498
-40.5734
-21.958
-10.9388
-6.30244
-1.9933
51.8693
51.2465
50.7502
50.1452
47.7858
40.6495
22.1348
-22.7714
-109.556
-164.743
-179.19
-148.484
-98.1808
-72.6437
-58.0918
-41.0421
-24.3412
-13.3069
-7.48214
-2.70083
49.145
48.4714
47.3379
45.4434
41.2823
32.0625
12.4861
-26.0856
-91.1024
-138.527
-152.39
-132.404
-95.3299
-71.2625
-56.7207
-41.4976
-26.2782
-15.2743
-8.49624
-3.2013
46.4758
45.7003
44.0133
41.0579
35.5216
25.0472
5.5298
-27.8678
-78.6177
-118.639
-131.891
-119.966
-92.3743
-70.084
-55.4679
-41.4501
-27.5114
-16.7254
-9.25657
-3.53311
43.918
43.0101
40.8528
37.0538
30.51
19.3035
0.399798
-28.9395
-69.4823
-103.065
-115.666
-108.704
-87.9346
-68.1813
-54.0651
-41.1356
-28.3508
-17.8887
-9.9122
-3.81323
41.5083
40.464
37.9174
33.4668
26.2123
14.6457
-3.39563
-29.3564
-62.4943
-90.6908
-102.599
-98.8245
-83.3753
-66.567
-53.0349
-40.9101
-28.9876
-18.8043
-10.448
-4.02958
39.2803
38.1133
35.2522
30.3102
22.5762
10.8978
-6.20013
-29.3694
-57.1184
-80.9779
-92.1909
-90.5766
-78.9678
-64.6816
-51.9358
-40.4864
-29.2706
-19.4019
-10.8181
-4.17468
37.2654
35.9963
32.8868
27.583
19.5432
7.91508
-8.26422
-29.137
-52.9104
-73.3693
-83.8751
-83.7215
-74.953
-62.8223
-50.9652
-40.1114
-29.4617
-19.8797
-11.1516
-4.31749
35.4907
34.1407
30.8401
25.2769
17.0591
5.57394
-9.76449
-28.7751
-49.5528
-67.4526
-77.2284
-78.0691
-71.4552
-61.0926
-50.0885
-39.7224
-29.5114
-20.1789
-11.3733
-4.40365
33.9789
32.5672
29.1237
23.3797
15.0774
3.77711
-10.8436
-28.4016
-46.9015
-62.9353
-72.0746
-73.5153
-68.5224
-59.5674
-49.3252
-39.3675
-29.4961
-20.3813
-11.5465
-4.48007
32.748
31.2909
27.7444
21.8778
13.5368
2.42022
-11.6163
-28.0864
-44.9062
-59.4845
-68.0828
-69.9763
-66.2112
-58.3241
-48.7075
-39.0749
-29.455
-20.5119
-11.6701
-4.53206
31.8121
30.3232
26.7063
20.7598
12.3966
1.42406
-12.1659
-27.8047
-43.5315
-56.944
-65.128
-67.4606
-64.4986
-57.3743
-48.2344
-38.8464
-29.4044
-20.5906
-11.7554
-4.57032
31.1819
29.6726
26.0118
20.0176
11.6445
0.770325
-12.5116
-27.6149
-42.6075
-55.3563
-63.3899
-65.7097
-63.2957
-56.6981
-47.8914
-38.6786
-29.3558
-20.6289
-11.804
-4.59046
30.8646
29.3452
25.6633
19.6467
11.2688
0.441181
-12.6918
-27.5471
-42.1579
-54.6098
-62.5558
-64.7823
-62.6925
-56.3772
-47.7255
-38.5915
-29.3416
-20.6552
-11.8344
-4.60523
72.0034
59.5822
65.8966
68.698
76.8673
93.2848
64.0968
59.7777
63.101
67.4068
74.4204
87.9909
106.814
133.682
-73.7964
-44.1807
-19.1747
-2.3399
3.42152
2.07076
59.7831
58.5441
60.5375
64.3971
69.678
77.0545
78.5641
68.087
-78.646
-72.563
-42.5666
-18.8333
-4.57963
-0.729954
0.223608
57.2582
56.4212
57.4356
59.9201
62.4508
63.5425
54.2693
28.2465
-135.491
-215.561
-107.736
-75.6351
-62.3333
-38.9859
-18.9882
-8.14657
-4.91536
-1.04812
54.5914
53.9317
54.1519
55.0459
54.9342
51.1887
35.2562
-14.3241
-109.916
-191.632
-229.969
-183.709
-100.563
-75.2233
-60.4008
-40.4208
-21.9616
-10.9949
-6.25605
-1.98638
51.8696
51.2466
50.7504
50.1456
47.7862
40.6511
22.1366
-22.7682
-109.545
-164.716
-179.149
-148.488
-98.321
-72.8616
-58.0864
-40.9794
-24.3353
-13.3363
-7.46197
-2.69477
49.1452
48.4716
47.3381
45.4438
41.2827
32.0638
12.4876
-26.0826
-91.0937
-138.506
-152.353
-132.375
-95.3462
-71.3253
-56.7352
-41.4872
-26.2853
-15.2968
-8.4945
-3.19897
46.476
45.7005
44.0135
41.0582
35.5219
25.0482
5.53118
-27.8653
-78.6107
-118.624
-131.861
-119.935
-92.3581
-70.0924
-55.4806
-41.4571
-27.5205
-16.7384
-9.25778
-3.53177
43.9182
43.0103
40.853
37.0541
30.5103
19.3042
0.400966
-28.9376
-69.4771
-103.054
-115.645
-108.679
-87.9134
-68.1739
-54.0711
-41.1455
-28.3595
-17.8973
-9.91488
-3.81339
41.5085
40.4641
37.9176
33.467
26.2125
14.6463
-3.39471
-29.3548
-62.4905
-90.6824
-102.584
-98.8052
-83.3569
-66.5561
-53.037
-40.9192
-28.9954
-18.8103
-10.4504
-4.0299
39.2805
38.1134
35.2523
30.3104
22.5764
10.8982
-6.19941
-29.3682
-57.1155
-80.9719
-92.1802
-90.5628
-78.954
-64.6722
-51.9363
-40.4932
-29.2768
-19.4062
-10.82
-4.17522
37.2655
35.9964
32.8869
27.5831
19.5434
7.91534
-8.26359
-29.136
-52.9082
-73.3652
-83.8674
-83.7118
-74.9433
-62.8151
-50.9648
-40.1161
-29.4664
-19.8829
-11.1532
-4.31809
35.4908
34.1408
30.8402
25.277
17.0592
5.57412
-9.764
-28.7743
-49.551
-67.4501
-77.2228
-78.0622
-71.4484
-61.0873
-50.0877
-39.7255
-29.5148
-20.1813
-11.3746
-4.4042
33.979
32.5672
29.1237
23.3797
15.0775
3.77723
-10.8432
-28.4014
-46.8987
-62.9353
-72.0699
-73.5105
-68.5182
-59.5637
-49.3245
-39.3695
-29.4985
-20.3831
-11.5476
-4.48056
32.7481
31.2909
27.7445
21.8778
13.5369
2.42028
-11.6158
-28.0874
-44.9033
-59.4842
-68.0761
-69.9722
-66.2095
-58.3222
-48.7073
-39.0764
-29.4569
-20.5135
-11.671
-4.53255
31.8122
30.3232
26.7063
20.7599
12.3966
1.42413
-12.1657
-27.8045
-43.5315
-56.9399
-65.1264
-67.4593
-64.4966
-57.3725
-48.234
-38.8473
-29.4057
-20.5918
-11.7562
-4.57066
31.1819
29.6726
26.0118
20.0177
11.6446
0.770389
-12.5115
-27.6145
-42.6073
-55.3539
-63.394
-65.7063
-63.2926
-56.6962
-47.8908
-38.6789
-29.3567
-20.6299
-11.8045
-4.59067
30.8646
29.3452
25.6633
19.6468
11.2688
0.441236
-12.6917
-27.5467
-42.1575
-54.6088
-62.5554
-64.7801
-62.6905
-56.3761
-47.7254
-38.5919
-29.3425
-20.6562
-11.835
-4.60547
72.0035
59.5823
65.8967
68.698
76.8674
93.2856
64.0969
59.7777
63.1011
67.4067
74.4204
87.9914
106.815
133.707
-70.8008
-42.0745
-18.6287
-1.78138
4.01028
2.13822
59.7831
58.5441
60.5376
64.3971
69.6779
77.0548
78.5644
68.0975
-79.1618
-70.2904
-41.2698
-18.521
-4.5656
-0.916271
0.140637
57.2583
56.4212
57.4356
59.9201
62.4507
63.5425
54.2694
28.2424
-135.481
-215.566
-108.292
-75.892
-62.1639
-38.8232
-18.9967
-8.14636
-4.89337
-1.10508
54.5914
53.9317
54.1519
55.0458
54.934
51.1886
35.2562
-14.324
-109.913
-191.625
-229.958
-183.747
-100.683
-75.3527
-60.3539
-40.3366
-21.9566
-11.0081
-6.24979
-1.99781
51.8696
51.2467
50.7505
50.1455
47.786
40.6511
22.1364
-22.7684
-109.544
-164.716
-179.151
-148.497
-98.3736
-72.9202
-58.068
-40.9202
-24.318
-13.3448
-7.46233
-2.70098
49.1452
48.4716
47.3381
45.4437
41.2825
32.0637
12.4874
-26.0828
-91.0936
-138.506
-152.352
-132.383
-95.369
-71.3499
-56.7305
-41.4564