/*--------------------------------*- C++ -*----------------------------------*\
  =========                 |
  \\      /  F ield         | OpenFOAM: The Open Source CFD Toolbox
   \\    /   O peration     | Website:  https://openfoam.org
    \\  /    A nd           | Version:  10
     \\/     M anipulation  |
\*---------------------------------------------------------------------------*/
FoamFile
{
    format      ascii;
    class       surfaceScalarField;
    location    "2000";
    object      phi;
}
// * * * * * * * * * * * * * * * * * * * * * * * * * * * * * * * * * * * * * //

dimensions      [0 3 -1 0 0 0 0];

internalField   nonuniform List<scalar> 
164653
(
-3.37043
39.5757
-0.00397097
3.24873
0.00163087
-38.9338
38.7913
0.0188994
0.429744
-0.163772
-0.00953175
-0.145663
-0.197471
-38.7202
38.323
-0.0444353
1.11716
-0.118688
-0.21316
-0.10622
-0.930786
-10.1005
10.2161
0.000827475
0.798091
-0.236582
-9.07345
8.78818
-0.00639118
0.525819
-7.53455
7.15795
0.341701
-0.00160592
-0.0673596
-20.921
161.746
20.8089
-0.0126409
-2.84418
-161.113
160.29
3.68853
-0.0220679
-9.32315
-159.135
158.459
10.0829
-0.0660212
-3.73151
-159.314
157.726
17.0147
-0.126762
-3.82387
-3.81267
-3.90796
-4.73763
-156.341
153.948
22.7706
-0.102706
-5.39499
-4.71841
-5.40858
-6.60415
-150.384
144.449
35.4952
-0.394881
-7.86191
-6.54045
-7.94662
-23.239
77.1152
-2.00236
-14.7633
-22.2845
-14.9312
-131.825
32.6247
32.7902
33.4502
33.5031
-7.38037
-28.5645
29.2913
0.645472
-10.4989
-7.50705
-10.4782
7.25201
10.066
10.0863
7.30623
-0.616482
0.385563
0.0702786
0.232148
-1.73456
-4.9857
1.61645
-2.87985
-1.52268
-2.71063
2.70235
2.66007
3.28768
3.39014
0.354743
1.23796
-4.83774
22.0278
0.876159
-8.14699
1.60851
1.17762
1.5425
-4.66273
-5.61025
-5.49387
0.937621
-26.4417
28.1316
0.578486
-6.3722
1.12367
0.839435
0.978993
1.00272
-31.3151
32.5884
0.190725
-5.00858
0.725011
0.972104
0.70774
7.52441
-35.6486
36.1549
-0.0523891
-8.06043
663.021
32.9938
-0.0785426
-20.7199
-0.892901
-13.8143
0.0810385
656.486
26.7674
-0.0313464
-4.29365
-6.14734
-3.61562
-6.13786
656.869
58.5478
-0.222108
-10.9579
-16.2084
-12.433
-19.0585
650.255
84.551
-0.197551
-17.9952
-20.1074
-18.3356
-21.2753
636.265
118.788
0.0458701
-25.2373
-28.8726
-24.3784
-26.3875
601.124
256.815
-0.123137
-40.5341
-62.6875
-45.2201
-73.0724
148.087
350.532
2.04941
145.114
151.879
155.159
-84.9721
-86.3884
-78.0537
-102.824
-33.5652
145.817
-0.72841
40.4738
37.5873
37.3427
39.2809
-41.7061
-34.6264
-41.7057
0.473719
0.188357
0.109843
0.0603723
16.7967
-127.027
144.617
-77.0501
-8.08857
16.4944
18.3588
16.7407
14.2318
-154.073
161.417
-59.7014
-2.95229
14.1147
13.5975
13.3888
47.1635
-165.662
169.012
-48.892
-1.8802
35.0944
-162.948
173.095
-44.303
-1.19684
32.126
-174.917
177.288
-33.5388
-1.11477
35.5485
-176.736
177.312
-34.4902
-1.06939
672.46
31.75
-0.0169762
669.734
29.4525
0.0341848
667.223
60.9946
-0.000135037
663.711
88.1518
-0.0653074
661.97
120.134
0.110047
654.498
265.061
-0.475317
167.261
308.497
-0.713069
181.21
166.975
181.423
-125.629
173.796
118.629
1.07995
-52.2307
-48.0229
53.3496
0.0290661
46.5562
-17.5994
13.5173
3.91037
0.353755
0.0792976
2.32396
-11.1037
48.3597
-13.9686
1.12815
2.86729
2.62833
3.10567
-11.2083
-12.1146
-12.1224
14.488
-48.9909
192.184
-41.7809
-3.67028
12.4819
16.7001
7.12084
-48.7373
-49.2559
-49.1538
774.536
-287.315
-20.4825
71.9782
62.8833
79.8149
61.6722
-173.827
-199.549
-172.526
-199.291
755.926
-192.801
-10.3277
57.8341
53.0239
54.7985
53.6133
753.655
-139.073
-5.50767
47.4512
33.0485
45.5931
19.4419
736.486
-159.13
-5.67128
38.3247
46.819
39.1029
57.0632
730.722
-107.072
-0.787394
33.1472
29.1128
37.1361
14.5291
-115.339
-2.78026
32.5797
31.6706
32.7441
31.9462
682.463
30.1623
-0.013683
681.336
30.5555
0.0173209
680.245
61.9911
0.0682597
679.181
89.3146
-0.0566913
677.771
121.111
0.223554
687.114
256.447
-0.508984
725.616
270.527
-0.577288
205.258
449.874
0.407358
-117.54
-154.097
-119.735
-153.579
204.89
205.785
205.179
-129.268
218.405
117.055
-0.977674
-18.2959
230.605
64.241
-0.34987
-17.2864
-18.1798
-16.9876
-225.515
-10.2624
-60.0136
61.4628
-0.534444
9.30151
9.09713
-230.661
217.793
-26.1641
-1.0277
13.2851
1.72597
13.954
48.2729
-215.004
209.653
-43.1702
-0.792065
811.42
-190.247
-18.5253
40.3416
57.6064
51.6102
55.9463
-194.964
-202.596
-206.052
-202.142
795.762
-259.208
-11.252
770.141
-162.028
-4.66712
738.983
-105.016
-2.14757
751.911
-169.163
-2.42455
747.158
-100.457
-1.20865
-108.789
-1.73229
691.007
28.4375
-0.0229551
690.96
30.5941
0.00249024
691.399
61.4787
0.0711611
692.785
87.9749
-0.0376542
696.055
117.541
0.163993
712.027
240.944
-0.336214
748.626
234.147
-0.230741
854.057
344.448
-0.001489
889.41
296.578
-1.39592
-103.152
-64.7341
-105.616
-56.7315
231.547
184.359
-1.76867
-58.1364
-50.5535
-52.0732
-53.1005
228.782
231.232
228.498
-28.219
234.093
25.9334
-0.304153
866.361
-82.6675
-2.22091
19.2964
51.2867
3.84291
60.8659
-229.965
-227.644
-230.213
-227.668
870.479
-114.283
-4.21987
36.6352
17.3056
31.9569
31.7173
823.587
-131.787
-9.12235
798.772
-225.916
-7.52417
782.429
-141.238
-4.66384
772.583
-92.345
-3.09636
762.011
-156.664
-2.4837
756.324
-93.3466
-1.89625
-84.2965
-1.59015
698.452
26.6242
-0.0250563
699.205
29.8345
0.0166446
701.031
59.593
-0.0142351
714.728
74.278
0.00880649
710.767
121.383
0.047293
751.458
200.383
-0.136002
767.449
218.586
-0.465078
825.462
286.106
0.112065
873.576
247.841
0.24509
904.07
155.746
-1.13104
897.402
44.9144
3.85666
-22.8912
-0.646008
-16.5459
-7.12935
866.343
-51.3521
-1.12368
848.294
-94.0123
-2.67401
859.627
-137.915
-5.79472
805.522
-168.18
-4.82692
790.073
-124.289
-2.87938
780.391
-82.3943
-1.56015
768.737
-145.352
-0.813661
762.425
-87.4645
-0.4806
-92.2992
-0.37012
705.073
24.6873
-0.0188507
706.407
28.4838
0.00264092
709.411
56.6082
0.0245508
713.508
70.2071
-0.0232513
729.992
104.912
-0.0383
770.407
159.998
-0.0713503
772.497
216.864
-0.175515
822.161
236.309
0.0636384
863.582
206.124
0.0537149
886.337
135.176
-1.29384
884.478
44.239
0.83034
865.891
-34.0207
0.0108027
849.063
-77.5065
-0.61202
849.258
-136.519
-1.97183
810.218
-128.062
-1.54772
795.606
-109.104
-1.13024
786.284
-73.0382
-0.514949
773.96
-133.089
-0.288503
767.202
-80.5889
-0.328934
-85.3714
-0.325807
723.274
10.355
-0.0113054
725.432
26.3251
-0.00444784
726.196
55.8143
0.0380897
721.99
74.4079
0.00706284
731.647
95.2664
0.0325736
749.332
142.178
0.0281583
789.702
176.503
-0.0195922
831.504
194.402
-0.00115144
855.016
182.19
0.249977
875.12
116.065
-0.630426
876.31
42.5045
-0.00626142
851.26
-9.15087
-0.24102
848.174
-73.7841
-0.774123
830.106
-116.916
-1.5392
820.97
-117.096
-1.92679
799.537
-86.2043
-1.62309
790.713
-63.2483
-1.10785
777.977
-119.658
-0.825897
781.56
-83.5012
-0.742883
-66.8338
-0.585179
715.103
9.45194
-0.00431888
717.299
24.1294
-0.004331
722.23
50.821
0.0538008
729.302
67.2697
0.0602797
739.641
84.8267
0.117893
757.988
123.709
0.0780518
783.381
150.989
0.109784
817.192
160.331
0.190846
847.92
151.098
0.177703
865.784
98.4105
-0.141568
868.788
39.4295
-0.0629975
859.924
-0.415345
-0.0363152
847.135
-60.268
-0.727946
830.409
-99.3803
-0.771732
814.328
-99.9222
-1.12189
802.617
-73.6833
-0.904872
794.249
-54.5492
-0.454099
781.248
-106.54
-0.249717
772.577
-74.6819
-0.225534
-60.1492
-0.166201
720.005
8.45328
-0.00267733
722.499
21.6459
-0.0127018
727.99
45.3064
0.0248286
735.663
59.5654
0.0340871
746.362
74.0533
0.0600695
757.789
112.223
0.0634286
787.542
121.096
0.0498908
821.966
125.741
0.154391
851.431
121.498
0.126856
863.954
85.972
-0.0858324
862.444
40.9827
-0.0931832
857.91
4.15939
-0.1351
846.091
-48.0237
-0.423768
830.982
-83.8434
-0.436906
815.931
-84.0995
-0.825002
813.439
-70.589
-0.703668
797.18
-38.0728
-0.33372
784.019
-93.1993
-0.294958
775.138
-65.582
-0.280247
-53.0587
-0.249192
724.533
7.36744
-0.0038936
727.267
18.9209
-0.0110375
733.154
39.4028
0.0149709
741.243
51.4665
0.0135256
752.02
63.2428
0.0113327
769.91
94.3342
0.028867
790.352
100.627
0.0406364
814.058
101.969
0.0634581
836.597
98.902
0.0709991
851.679
71.0442
-0.10138
859.496
33.1691
0.00216211
857.646
6.22771
-0.170336
845.047
-35.0904
-0.299883
813.852
-52.3494
-0.24838
817.112
-86.8882
-0.452267
805.985
-58.9525
-0.547319
799.741
-31.6321
-0.240549
786.505
-79.7872
-0.217272
777.432
-56.2979
-0.214908
-45.7151
-0.192656
728.713
6.23562
-0.00356379
731.647
15.9952
-0.00954311
737.835
33.2011
0.0119954
746.19
43.1058
0.00600067
756.802
52.6351
-0.0098792
773.85
77.2936
0.00378406
792.94
81.5066
0.0122112
813.545
81.3186
0.031166
831.039
81.3961
-0.00396964
847.383
54.8625
-0.0851356
852.686
27.8161
0.0128547
852.069
7.09894
-0.179435
844.309
-26.9706
-0.293295
834.114
-41.7954
-0.352122
816.774
-69.2424
-0.355277
807.825
-49.4634
-0.540171
802.035
-25.5675
-0.286316
788.789
-66.2828
-0.280533
779.625
-46.8466
-0.277394
-38.142
-0.257613
732.645
5.03702
-0.00298361
735.703
12.944
-0.00831646
742.123
26.7708
0.00940798
750.612
34.614
0.00222208
753.14
50.1195
-0.0150241
777.416
52.9962
0.0134122
795.386
63.5253
0.00156021
813.728
62.9589
0.0166128
832.507
62.6017
-0.00640106
844.536
42.9635
-0.0997765
849.869
22.4222
0.0365757
861.261
-4.18019
-0.0691179
843.952
-9.44088
-0.184331
834.668
-32.2326
-0.222962
819.562
-53.9418
-0.149727
809.723
-39.2126
-0.391107
804.274
-19.9536
-0.149625
791.059
-52.9262
-0.138997
781.827
-37.4511
-0.132384
-30.5673
-0.113306
736.321
3.81007
-0.00233863
739.486
9.78509
-0.00689563
746.05
20.1986
0.00678817
754.648
26.0128
0.00221712
765.808
38.9735
-0.0144538
781.024
37.7798
-0.00185959
797.74
46.802
0.000378245
814.917
45.8094
-0.0270604
831.743
45.7729
-0.0164312
843.331
31.4726
-0.0777631
849.429
16.2278
0.0630637
847.311
-2.0104
-0.030838
844.183
-6.13972
-0.129328
835.618
-23.429
-0.180829
821.853
-39.9963
-0.123166
811.769
-28.8098
-0.274809
806.581
-14.6339
-0.0859151
793.39
-39.6218
-0.0796063
784.115
-28.0488
-0.0744814
-22.9508
-0.0662564
739.8
2.55423
-0.00162009
743.038
6.55251
-0.00546623
749.713
13.5167
0.00569438
758.363
17.3626
-1.61728e-05
773.558
23.7892
-0.0113306
784.263
27.0762
-0.00821238
800.227
30.828
0.00432163
816.058
29.9634
0.0101977
832.001
29.8607
-0.0394897
842.589
20.8589
0.0123122
848.279
10.5262
-0.000882279
847.437
-1.10352
-0.0662462
845.124
-3.72932
-0.0957057
837.122
-15.29
-0.123736
821.013
-23.7842
-0.0845411
814.04
-21.6213
-0.203881
809.061
-9.57602
-0.0670061
795.908
-26.4012
-0.0635502
786.622
-18.6856
-0.0568533
-15.3239
-0.0583274
743.101
1.27936
-0.00086225
746.37
3.28686
-0.00374936
753.109
6.77319
0.00406393
761.791
8.68179
-0.00234067
773.741
11.8414
-0.00260294
787.309
13.5014
0.00497243
802.852
15.2759
0.00483283
817.918
14.8913
0.00588206
833.108
14.693
-0.0186559
843.583
10.3847
0.00352841
848.99
5.24765
-0.105866
848.533
-0.575511
-0.062513
846.606
-1.71703
-0.0717164
838.968
-7.54544
-0.0916417
827.7
-12.4185
-0.0783138
816.382
-10.1528
-0.14021
811.617
-4.74015
-0.0602956
798.481
-13.2069
-0.0505449
789.204
-9.34632
-0.04849
-7.67307
-0.0468643
746.233
-0.000126536
749.522
-0.00158619
756.293
0.00151062
764.974
0.00017792
776.813
5.40489e-05
790.311
-0.000508831
805.583
-0.000574752
820.476
-0.00151799
835.184
-0.0110839
845.592
-0.0170142
850.886
-0.0400487
850.382
-0.0559143
848.748
-0.0684856
841.301
-0.086395
828.979
-0.0827832
818.922
-0.0906854
814.258
-0.0682365
801.101
-0.0412364
791.806
-0.0388053
-0.0382671
-0.00157271
-1.16855
39.4399
0.974316
0.00319969
-0.0119718
0.19102
-39.2714
39.1616
-0.0802702
0.010928
0.00752268
-1.0275
-39.2238
39.1101
1.13731
-0.00361517
0.0460133
-2.09484
-36.4672
34.9948
3.53902
-0.0178389
-0.204628
-38.1066
34.5781
3.90159
0.0216367
-0.190108
0.174515
-31.2671
29.5849
2.85275
-0.096512
-1.24854
-4.10605
0.0519598
161.589
4.21433
-0.025966
-2.71692
-0.00149038
160.029
3.64172
0.0112997
-160.964
-9.30967
0.0284702
-158.771
157.469
10.5846
-0.00154703
-19.4112
0.0551111
-157.092
157.674
18.7892
-0.0152766
-19.0597
-0.0577673
-159.797
156.962
21.9193
0.0323949
-34.9943
-0.0954882
-151.335
144.139
42.1765
0.109589
1.30518
-15.6162
130.167
72.7481
-0.959634
-17.1549
-15.2885
-17.2985
-137.903
-0.156897
-28.8042
-30.08
31.9396
27.2993
-0.197872
-4.38959
4.40928
-9.65058
4.94447
4.68744
-7.76111
-11.7573
13.9667
-6.12554
9.21854
2.46123
-4.42086
4.66453
-18.9944
22.0575
-8.17005
4.86365
-4.9917
6.90656
-25.7071
115.965
-35.3029
15.3597
4.45799
7.2282
4.29282
-29.3857
-23.8349
-28.0679
-3.34573
-2.25476
-1.32018
-1.86311
4.59354
-30.1706
33.0929
-7.82593
2.17245
-2.02024
6.78788
-137.845
142.835
-31.5495
1.61794
7.29585
6.25069
6.62405
658.23
14.5659
-0.0687136
-4.49944
-2.63773
-2.11956
-3.30075
652.795
26.6185
0.0120128
-4.25465
-6.13578
-4.7693
-6.06724
647.834
59.2378
-0.128083
-11.6004
-17.6021
-10.0695
-15.0994
644.046
85.3841
-0.0985456
-19.058
-22.1051
-19.2091
-21.323
628.528
119.221
0.320747
-24.5467
-26.0105
-25.4723
-27.9493
601.7
240.185
0.0438436
-47.4783
-67.4576
-42.5221
-56.0657
164.593
357.455
0.931891
156.475
165.277
156.906
-80.2226
-120.287
-78.7524
-118.627
-0.51806
-140.986
138.412
-0.132462
45.6416
40.1216
40.1864
41.868
12.9842
4.78711
-3.32858
-12.7537
-1.68902
73.8071
-123.528
16.4486
140.904
-84.4269
-23.2015
51.0844
6.83188
-152.908
161.363
-56.1223
-10.2453
43.3891
4.15505
-165.91
168.774
-44.8424
-5.55897
176.034
-188.233
-9.41942
38.2621
56.3218
34.4218
53.2454
2.58191
2.00759
2.65886
3.24316
-171.448
-180.526
-169.274
-180.7
177.687
176.093
177.048
45.9161
3.41763
176.527
-46.0046
-3.8271
-105.944
-12.6474
30.9901
22.5295
29.5761
20.716
2.95572
1.20826
2.48009
1.46367
-175.39
-177.971
-174.489
-177.605
671.443
14.3851
-0.0370442
668.655
29.4079
0.0321339
666.424
61.505
-0.0376716
663.41
88.4262
-0.093578
655.637
126.586
0.518212
654.417
241.318
-0.388059
167.195
320.542
0.164775
182.373
167.189
173.694
-0.103991
-127.312
176.3
118.317
-0.00508698
0.890671
-56.3494
-46.357
54.0876
48.4313
-0.703183
0.712478
-56.3448
47.0219
7.94149
-0.635053
1.30393
0.178149
3.11805
-10.9549
47.3296
-14.7061
-0.586201
2.79412
1.45001
0.612486
-11.0276
-9.28984
-8.91678
767.974
-237.786
-48.337
-177.927
-200.879
-178.471
-201.48
46.6477
79.4162
49.3094
65.3318
7.66682
11.1103
8.08918
9.348
766.063
-259.707
-36.8966
79.1448
64.1601
69.4281
65.3012
748.326
-191.928
-19.0278
53.7069
53.6718
56.7972
54.2078
756.078
-117.702
-12.4652
43.5376
12.1875
44.8085
16.3744
739.974
-170.931
-6.85568
721.748
-117.368
-5.32122
46.3108
16.0039
47.5755
30.2076
-111.504
-6.42417
681.325
13.8788
-0.0268409
680.178
30.5404
0.0310183
679.342
62.4076
0.000566876
678.485
89.3287
-0.101824
677.81
127.063
0.420464
686.5
232.607
-0.489266
720.93
285.392
0.141479
205.23
413.024
0.509424
-119.716
-137.093
-118.288
-135.298
204.216
204.882
203.872
-137.856
223.628
119.29
-0.265116
0.431183
-2.20363
-56.0873
-227.176
228.267
56.309
0.891278
0.0399884
-6.44134
234.338
16.7356
-1.17078
-1.4242
-6.72836
-2.81943
-232.529
2.1823
-231.086
-1.35425
225.106
5.90333
-1.38172
1.16497
2.08246
-2.61684
813.791
-131.027
-17.5658
36.8869
59.0184
42.585
66.1002
-218.108
-218.864
-218.185
-219.045
-3.47294
3.60335
-0.0373975
4.33465
801.501
-216.953
-27.0559
786.523
-235.719
-20.2496
768.599
-168.543
-10.1221
759.152
-104.115
-6.27136
750.674
-161.268
-3.61399
744.977
-110.183
-2.70514
-106.086
-3.79286
689.793
13.2585
-0.0259464
689.743
30.5719
0.0201325
690.392
61.8264
0.00259198
691.887
87.8735
-0.0774276
695.859
122.972
0.282628
710.485
217.993
-0.348593
748.278
247.235
0.13266
819.59
341.192
0.517893
877.523
289.031
0.100461
-103.311
-68.5242
-101.112
-75.5137
904.883
184.604
-0.553564
-53.0015
-54.5283
-55.0641
-50.5859
895.66
31.9709
-3.38891
-13.7559
0.745268
-16.422
3.22764
1.26696
6.61509
-0.221161
-0.815351
874.801
-51.5147
-3.7646
-11.4424
51.4091
-8.7976
42.7487
846.066
-97.3038
-9.20557
821.147
-186.061
-15.0911
797.489
-207.811
-11.771
780.685
-149.625
-6.77505
771.147
-93.1056
-4.56094
761.174
-150.93
-2.85264
754.792
-103.41
-2.29117
-100.233
-2.78386
697.198
12.5716
-0.0231376
697.954
29.8168
0.0155129
699.936
59.8445
-0.0142573
703.398
84.4566
-0.0371153
710.327
115.936
0.155177
728.255
200.035
-0.106893
764.471
210.685
-0.132136
823.953
281.762
0.0613868
870.6
241.837
0.789655
895.46
158.475
0.13812
889.052
41.6963
0.539435
866.214
-28.3417
-1.4663
849.658
-77.9852
-5.41873
857.171
-190.171
-9.1887
804.795
-151.987
-8.27134
788.694
-131.137
-5.26166
779.251
-81.691
-3.52624
754.378
-124.727
-2.14532
761.203
-108.995
-1.72467
-92.8425
-2.10545
703.774
11.8043
-0.0198714
705.124
28.4586
0.0107909
708.216
56.7716
0.00529716
713.24
79.4088
0.000387854
721.988
107.059
0.0895731
769.542
152.426
-0.0156366
771.442
208.898
-0.28879
820.374
232.84
0.0530205
860.912
201.39
-0.0382691
883.355
134.858
-0.119984
881.952
44.0954
-0.165874
866.192
-11.4561
-1.11616
851.06
-60.4203
-3.04001
828.365
-164.644
-4.79969
809.381
-129.754
-4.79334
794.024
-113.802
-3.10523
784.933
-70.9801
-2.13082
774.505
-113.18
-1.41004
765.776
-99.3463
-1.25285
-85.1924
-1.6599
709.678
10.9441
-0.0101339
711.499
26.6194
0.0136461
715.493
52.8184
-0.00288003
721.651
73.2595
-0.00168967
731.577
97.1672
-0.00183315
748.647
135.277
0.106199
777.896
179.711
-0.0825742
817.978
192.782
-0.0251146
852.553
166.988
0.0771912
872.332
114.651
-0.202353
873.86
42.9604
-0.398737
851.453
11.5069
-0.796164
850.137
-57.8362
-2.03964
829.056
-142.249
-2.85124
812.141
-111.312
-3.45096
797.797
-98.5342
-2.54549
789.237
-61.6471
-1.87885
778.419
-101.899
-1.29003
769.304
-89.9035
-1.07535
-77.5227
-1.34558
715.041
9.97118
-0.00220985
717.229
24.411
0.0156555
721.913
48.1914
-0.00320149
728.915
66.3486
-0.0302284
739.508
86.7082
-0.0166579
757.334
117.554
-0.0247498
783
154.269
-0.113266
816.71
159.274
-0.010984
845.638
138.273
-0.035161
863.142
97.1673
-0.161634
866.411
39.9248
-0.295765
860.24
18.079
-0.436168
849.148
-46.049
-1.42144
829.713
-121.959
-1.62441
814.263
-94.9395
-2.04309
800.865
-84.6202
-1.41904
792.768
-53.1001
-0.902917
781.704
-90.5971
-0.489296
772.271
-80.3169
-0.383504
-69.58
-0.721969
719.931
8.91211
-0.00219721
722.436
21.8823
0.0109143
727.653
42.995
0.00339038
735.234
58.8153
-0.0136389
746.186
75.8125
0.00326615
753.288
110.587
-0.0709265
787.135
120.528
-0.0569097
822.284
124.319
-0.0398748
840.148
120.681
-0.145088
855.838
81.6915
-0.300017
860.157
35.8042
-0.291361
873.756
4.71406
-0.367547
848.046
-19.8004
-0.961073
830.526
-103.921
-0.953976
815.821
-79.6275
-1.43078
803.283
-71.6868
-1.09808
795.686
-45.0973
-0.738789
784.478
-79.1605
-0.524606
774.825
-70.4896
-0.458574
-61.328
-0.761862
724.444
7.77488
-0.002031
727.193
19.1148
0.00697646
732.794
37.404
0.0043748
740.801
50.8282
-0.00587103
751.817
64.7876
0.0196827
769.533
92.9564
-0.0555987
789.865
100.287
-0.05086
813.43
100.849
-0.0306042
835.829
98.477
-0.12488
850.167
67.5545
-0.301431
854.994
31.2156
-0.236171
852.994
6.90569
-0.361589
847.098
-13.4788
-0.724086
796.17
-52.6007
-0.639511
817.014
-99.9879
-0.934499
805.411
-59.8157
-0.815516
798.276
-37.6723
-0.528905
787.002
-67.758
-0.346997
777.17
-60.5857
-0.291435
-52.91
-0.539951
728.631
6.57204
-0.00174309
731.572
16.1597
0.0049191
737.46
31.5256
0.00218408
745.725
42.568
0.000492642
756.54
53.9706
-0.00790174
773.41
76.1163
-0.0257633
792.442
81.2568
0.0103883
812.866
80.4367
0.0200167
832.94
78.4614
-0.062423
845.95
54.6582
-0.198185
851.012
26.3067
-0.139644
850.576
7.50416
-0.341354
846.339
-9.04807
-0.486164
836.027
-42.0436
-0.596591
812.347
-76.0954
-0.567579
807.192
-54.5265
-0.673785
800.519
-30.8367
-0.447212
789.239
-56.4397
-0.320958
779.31
-50.6513
-0.285828
-44.3791
-0.514395
732.549
5.3137
-0.00136462
735.624
13.073
0.00324386
741.735
25.4227
0.00148373
750.111
34.1937
-0.000406981
755.713
48.371
-0.0172263
776.903
54.9196
0.0205953
794.87
63.2989
-0.00809433
813.058
62.2439
0.0219475
831.191
60.3574
-0.0354884
843.141
42.7246
-0.114752
848.237
21.3113
-0.063817
859.766
-3.88252
-0.211105
845.984
4.88453
-0.334425
836.618
-32.4344
-0.46609
820.354
-59.6044
-0.375896
809.154
-43.1772
-0.540179
802.745
-24.2326
-0.343733
791.503
-45.0852
-0.252523
781.508
-40.5652
-0.227037
-35.6258
-0.420552
736.225
4.0202
-0.00101277
739.406
9.88403
0.0019771
745.658
19.1768
0.000493877
754.151
25.7004
0.00261961
766.121
36.4078
-0.0216801
780.555
40.4803
0.00354076
797.237
46.632
-0.0149635
814.166
45.2796
0.00931011
830.451
44.1051
-0.0489794
841.942
31.2313
-0.0751473
847.688
15.7184
-0.0895416
845.796
-1.85343
-0.167861
846.231
4.58818
-0.267489
837.561
-23.5948
-0.35017
822.786
-44.6491
-0.303266
811.186
-31.4115
-0.440332
805.033
-17.8599
-0.304909
793.826
-33.7149
-0.243836
783.795
-30.3813
-0.230634
-26.7434
-0.377926
739.7
2.69084
-0.000637833
742.957
6.62088
0.000694346
749.306
12.8325
0.000939467
757.856
17.15
-1.32123e-05
770.312
23.9593
-0.019041
783.816
26.9678
0.000508606
799.715
30.7316
0.00669448
815.365
29.6238
0.0160881
830.699
28.7407
-0.00890191
841.312
20.6933
-0.0615831
846.78
10.3017
-0.0523045
845.912
-0.978065
-0.073425
847.142
3.43307
-0.169949
839.045
-15.4037
-0.217418
825.124
-30.6335
-0.179237
813.455
-19.6369
-0.309831
807.484
-11.7355
-0.219455
796.317
-22.4368
-0.175283
786.283
-20.242
-0.166353
-17.848
-0.265694
743.002
1.34801
-0.000338853
746.301
3.31803
-8.08752e-05
752.707
6.43002
0.0012204
761.276
8.57976
-0.00154082
773.332
11.9072
-0.00646341
786.832
13.4672
0.00625462
802.323
15.2377
0.00768497
817.229
14.7175
0.00632208
831.845
14.1297
-0.0227007
842.245
10.3468
-0.0500631
847.431
5.02982
-0.0196389
847.007
-0.526164
-0.0900778
848.646
1.87781
-0.154957
840.923
-7.58969
-0.182975
827.732
-17.3565
-0.163763
815.84
-7.64568
-0.239537
810.044
-5.81825
-0.180651
798.907
-11.2126
-0.139066
788.874
-10.1276
-0.134191
-8.9298
-0.196283
746.133
-0.000105214
749.449
-0.000409284
755.88
0.00118378
764.46
-0.000608422
776.365
0.00268429
789.829
0.0027309
805.064
0.00223379
819.783
-0.00345278
833.924
-0.0218489
844.291
-0.0372756
849.329
-0.0479398
848.843
-0.0956509
850.786
-0.133011
843.269
-0.159198
825.97
-0.140206
818.403
-0.169556
812.675
-0.157847
801.529
-0.109093
791.464
-0.10336
-0.123049
-0.000286675
-0.602056
39.3372
0.419975
-3.5778e-05
-0.00653928
-0.130476
-39.1616
39.0685
0.225397
0.00466192
0.00581532
-0.706364
-39.2426
39.2308
0.718699
-0.00643267
0.0133503
-1.95262
-36.6567
35.0616
3.54833
-0.0139658
-0.0241276
-38.3586
34.3147
4.41621
0.0173223
-0.365489
-0.00223435
-31.3082
30.1941
1.84204
0.00321656
-0.728911
-1.30198
161.489
1.46006
-0.00571995
0.0156526
-3.19363
-0.011627
-160.865
159.921
4.145
0.00434814
-6.81099
0.010163
-158.539
156.88
8.47017
-0.0100148
-20.3947
0.0197307
-156.054
157.148
19.2971
-0.0168048
-20.3568
-0.0340563
-160.24
157.375
23.2189
0.0360683
-26.9085
-0.0679395
-151.2
143.42
34.7333
0.0231801
-15.1479
0.673667
131.323
72.5243
-0.480221
-17.74
-15.1105
-17.9086
-138.134
0.0633525
-32.8185
-31.4417
35.015
29.1764
0.0054407
-5.57838
-1.246
-0.281556
5.91545
1.19308
-11.1184
-4.35279
6.47281
-3.53359
11.3775
1.15559
-5.46104
2.25747
-11.8945
14.3893
-5.00863
5.71642
-15.9735
6.43094
-18.8737
95.0877
-28.777
14.3027
4.08253
6.12062
3.86613
-23.8731
-18.4893
-23.9045
-2.95058
2.32099
-25.7406
28.2109
-4.77493
2.93428
-1.6399
5.49357
-126.613
131.398
-30.414
3.17717
6.72304
5.26723
6.605
659.758
11.2887
-0.0320222
-1.78662
-3.40515
-1.76592
-3.39551
653.755
27.6219
-0.000571147
-4.81114
-6.01274
-4.78483
-5.9981
650.582
51.3752
-0.0878027
-9.6614
-14.4668
-9.63119
-14.4831
648.267
83.616
-0.0731622
-19.2572
-21.3035
-19.3623
-21.4037
631.72
125.225
0.183706
-25.8039
-28.4131
-25.887
-28.4377
610.022
207.353
-0.39325
-40.4016
-52.59
-40.1013
-52.1249
149.954
364.777
0.139245
157.247
149.386
157.07
-78.9943
-104.729
-79.0976
-104.799
-0.0692735
-155.143
147.701
0.292
40.3229
38.3201
40.3568
38.1743
12.2987
1.09047
-12.2439
-0.130148
-1.01679
48.9259
-106.371
28.8255
127.527
-65.0013
-33.9008
46.3939
11.4068
-143.105
153.913
-56.1195
-12.4858
41.1742
-159.916
5.264
164.549
-45.5318
-5.536
175.112
-156.659
-8.49405
34.4155
42.774
37.6334
36.4062
-168.428
-180.17
-168.387
-179.797
176.005
174.681
175.488
38.3776
3.36419
175.261
-39.3331
-2.56028
-117.831
-12.9008
32.4678
25.2063
33.5207
27.0725
-173.534
-176.809
-173.208
-176.57
671.279
11.3104
-0.0249198
668.513
30.4085
0.0119653
665.924
53.9533
-0.0279555
663.054
86.4487
-0.056319
655.957
132.51
0.328925
654.094
209.218
-0.389721
167.303
341.448
0.204819
171.648
167.157
171.273
-136.138
0.114724
175.977
127.084
0.265625
0.301081
-51.2703
-49.1062
53.1364
47.1745
-0.235407
0.205916
-56.5887
47.1726
10.6444
-0.193317
-1.24087
2.03037
-10.8587
1.04125
-1.33765
46.8788
-10.8866
1.95645
1.67587
1.83651
-10.8446
-10.6149
-10.8767
796.5
-199.791
-57.0237
-190.386
-199.657
-190.787
-199.737
42.8333
57.581
38.0296
54.1019
769.817
-215.611
-43.6783
63.1559
62.657
61.2206
62.0533
753.86
-197.147
-22.8168
55.9896
52.4793
55.4023
53.0253
736.911
-149.916
-15.0194
45.7626
32.3148
47.2585
44.0929
734.26
-152.907
-7.95769
731.42
-140.423
-7.1341
40.9153
33.9941
35.959
34.1997
-113.044
-8.04622
681.137
11.0108
-0.0210398
680.075
31.4881
0.0122262
678.818
55.2152
-0.00402289
677.902
87.3191
-0.057006
677.9
132.694
0.238758
685.42
201.583
-0.374511
726.441
300.472
0.0964438
204.894
417.07
0.550922
-117.342
-136.531
-117.583
-136.888
203.952
204.883
203.945
-134.158
0.255665
223.166
115.685
-0.0547478
-58.2763
0.174708
-227.301
227.633
58.0279
-0.258058
-7.40305
1.58193
233.252
20.8321
-1.30281
-4.21355
-7.45165
-4.15338
-231.142
5.29585
-230.62
2.67056
222.234
-13.9718
-2.72602
3.7084
6.63889
6.76912
787.177
-156.75
-20.6525
50.033
69.11
58.9163
62.9231
-215.374
-218.661
-215.885
-218.394
798.852
-206.072
-32.4456
787.858
-197.915
-26.9486
769.543
-173.949
-14.9978
758.047
-134.278
-10.407
750.563
-142.892
-6.14598
743.053
-130.248
-5.37877
-106.232
-6.05469
689.619
10.5775
-0.0193972
689.665
31.4544
0.00783081
689.843
55.0392
0.000475903
691.218
85.9112
-0.0454939
695.801
128.242
0.151809
708.564
188.718
-0.247986
747.47
261.727
-0.0291294
827.123
337.583
0.352711
881.717
297.258
0.397975
-100.177
-76.1605
-99.8853
-75.929
907.357
180.579
-0.705919
-54.5048
-48.8541
-54.2448
-48.4631
896.173
30.1126
-2.8241
-17.1795
6.70208
-17.2017
8.18609
865.153
-43.5773
-5.8035
9.68701
29.4943
18.547
18.9065
844.097
-132.19
-12.7056
819.589
-177.63
-19.0196
798.752
-172.118
-16.7241
781.253
-153.103
-10.1185
769.397
-119.781
-7.19061
760.551
-132.387
-4.51487
752.508
-120.632
-3.86872
-99.2968
-4.0701
697.033
10.0813
-0.0172142
697.875
30.6211
0.00640559
699.358
53.5422
-0.000517265
702.679
82.582
-0.0297326
710.16
120.838
0.0776273
724.707
174.169
-0.104399
762.556
223.862
-0.117352
821.863
278.355
-0.0178817
869.266
250.399
0.24508
894.09
156.551
-0.657466
887.426
38.9268
-1.61156
865.69
-19.695
-3.6169
804.905
-69.1343
-7.68395
825.25
-195.533
-11.6266
805.036
-148.892
-11.2818
788.329
-134.203
-7.45059
776.574
-106.23
-5.3175
752.7
-107.162
-3.49881
758.349
-125.025
-2.98434
-91.9448
-2.98015
703.604
9.5186
-0.0139396
705.053
29.178
0.00485713
707.611
50.9848
0.00402941
712.474
77.7343
-0.0149741
721.712
111.645
0.044637
737.798
158.123
-0.0559335
770.199
191.408
-0.236128
818.234
230.498
-0.124768
859.54
209.216
-0.161001
881.835
134.656
-0.521526
880.383
41.7186
-1.50489
865.538
-3.40174
-2.56484
851.066
-52.587
-5.11061
828.008
-170.16
-7.11217
809.311
-128.086
-6.89851
793.405
-116.816
-4.58382
782.057
-93.7253
-3.28394
773.082
-97.4071
-2.19187
762.838
-114.144
-1.89395
-84.4862
-2.01029
709.504
8.86129
-0.00815021
711.42
27.2684
0.00701623
714.865
47.538
-0.000277042
720.867
71.743
-0.01307
731.205
101.307
-0.00229771
749.08
140.352
0.0024723
776.377
164.133
-0.104992
815.796
191.188
-0.134037
851.132
174.151
-0.193837
870.825
115.117
-0.355931
872.277
41.1537
-1.2868
862.547
7.13246
-1.5997
850.047
-38.8252
-3.29938
828.523
-147.299
-4.18681
811.812
-110.219
-4.60467
796.976
-101.179
-3.34503
786.129
-82.2344
-2.52045
776.814
-87.6265
-1.7573
766.203
-103.104
-1.50988
-76.695
-1.52771
714.852
8.11071
-0.00319179
717.148
24.9828
0.00526749
721.271
43.4148
-0.00337446
728.112
64.8929
-0.0211205
739.113
90.2814
0.00724186
757.516
121.915
0.00967517
781.408
140.19
-0.061444
814.801
157.829
-0.0457068
844.223
144.822
-0.127636
861.675
97.7618
-0.258686
864.904
38.4646
-0.835066
868.819
3.8061
-1.02388
849.081
-18.2988
-2.20855
829.128
-126.335
-2.63301
813.929
-94.1401
-2.92152
800.04
-86.5688
-2.13891
789.653
-71.1835
-1.5652
780.107
-77.5427
-1.02915
769.205
-91.7362
-0.853289
-68.5063
-0.929935
719.731
7.26925
-0.00184911
722.331
22.3896
0.00438151
726.973
38.7777
-0.00169377
734.393
57.4749
-0.0156398
745.763
78.9191
-0.0047383
764.651
102.959
-0.00381848
785.58
119.205
-0.000439018
814.219
129.194
-0.0435408
838.813
120.202
-0.119757
854.444
82.0332
-0.202083
858.614
34.4839
-0.480164
875.367
-12.7422
-0.571299
847.999
9.3787
-1.26977
829.841
-107.595
-1.5345
815.455
-79.3012
-1.88334
802.406
-73.1356
-1.48109
792.497
-60.8844
-1.12761
782.826
-67.6115
-0.786096
771.699
-80.3944
-0.677528
-60.2811
-0.750291
724.223
6.35976
-0.00142213
727.069
19.5469
0.00320959
732.092
33.7595
0.000125296
739.915
49.6577
-0.0120388
751.374
67.4762
0.00350275
768.154
86.1328
-0.00900949
788.128
99.2022
-0.0228554
812.375
104.957
-0.0401527
834.533
97.994
-0.0737703
848.829
67.5835
-0.147506
853.443
29.9568
-0.322843
848.981
-8.27422
-0.367452
847.082
11.4773
-0.922672
813.044
-73.2509
-0.94451
816.592
-82.3667
-1.41615
804.496
-60.8319
-1.02294
795.034
-51.1674
-0.783414
785.319
-57.7143
-0.530068
774.023
-68.9336
-0.460559
-51.8335
-0.508713
728.401
5.37573
-0.00115646
731.423
16.5273
0.0024273
736.723
28.4617
1.24453e-05
744.794
41.5936
-0.00627827
755.992
56.2754
-0.0046929
771.806
70.3039
-0.0110869
790.625
80.4016
-0.00786439
811.774
83.8478
-0.0198577
831.75
78.0084
-0.0518535
844.659
54.5762
-0.0999458
849.459
25.2604
-0.242424
846.536
-5.41399
-0.278718
846.385
11.7266
-0.583757
832.451
-59.4086
-0.504151
812.482
-61.9889
-0.975316
806.249
-54.5095
-0.763225
797.253
-42.0337
-0.583652
787.544
-47.9278
-0.400311
776.142
-57.4588
-0.362292
-43.3357
-0.397958
732.303
4.35152
-0.000886367
735.463
13.3688