/*--------------------------------*- C++ -*----------------------------------*\
  =========                 |
  \\      /  F ield         | OpenFOAM: The Open Source CFD Toolbox
   \\    /   O peration     | Website:  https://openfoam.org
    \\  /    A nd           | Version:  10
     \\/     M anipulation  |
\*---------------------------------------------------------------------------*/
FoamFile
{
    format      ascii;
    class       volVectorField;
    location    "2000";
    object      U;
}
// * * * * * * * * * * * * * * * * * * * * * * * * * * * * * * * * * * * * * //

dimensions      [0 1 -1 0 0 0 0];

internalField   uniform (20 0 0);

boundaryField
{
    front
    {
        type            cyclic;
    }
    Back
    {
        type            cyclic;
    }
    inlet
    {
        type            fixedValue;
        value           nonuniform List<vector> 
920
(
(20.617 0 0)
(21.4567 0 0)
(22.0982 0 0)
(22.4945 0 0)
(22.8255 0 0)
(23.1098 0 0)
(23.359 0 0)
(23.5809 0 0)
(23.7807 0 0)
(23.9626 0 0)
(24.1294 0 0)
(24.2835 0 0)
(24.4266 0 0)
(24.5603 0 0)
(24.6857 0 0)
(24.8037 0 0)
(24.9152 0 0)
(25.0209 0 0)
(20.6215 0 0)
(21.4591 0 0)
(22.0994 0 0)
(22.4955 0 0)
(22.8263 0 0)
(23.1104 0 0)
(23.3596 0 0)
(23.5813 0 0)
(23.7811 0 0)
(23.9629 0 0)
(24.1297 0 0)
(24.2837 0 0)
(24.4268 0 0)
(24.5604 0 0)
(24.6858 0 0)
(24.8038 0 0)
(24.9153 0 0)
(25.0209 0 0)
(20.6224 0 0)
(21.4588 0 0)
(22.0992 0 0)
(22.4954 0 0)
(22.8262 0 0)
(23.1104 0 0)
(23.3596 0 0)
(23.5813 0 0)
(23.7811 0 0)
(23.9629 0 0)
(24.1297 0 0)
(24.2837 0 0)
(24.4268 0 0)
(24.5604 0 0)
(24.6858 0 0)
(24.8038 0 0)
(24.9153 0 0)
(25.0209 0 0)
(20.6224 0 0)
(21.4583 0 0)
(22.0988 0 0)
(22.4951 0 0)
(22.826 0 0)
(23.1102 0 0)
(23.3594 0 0)
(23.5812 0 0)
(23.781 0 0)
(23.9628 0 0)
(24.1296 0 0)
(24.2837 0 0)
(24.4268 0 0)
(24.5604 0 0)
(24.6858 0 0)
(24.8038 0 0)
(24.9153 0 0)
(25.0209 0 0)
(20.6223 0 0)
(21.4582 0 0)
(22.0986 0 0)
(22.4948 0 0)
(22.8257 0 0)
(23.11 0 0)
(23.3592 0 0)
(23.581 0 0)
(23.7809 0 0)
(23.9628 0 0)
(24.1296 0 0)
(24.2836 0 0)
(24.4268 0 0)
(24.5604 0 0)
(24.6857 0 0)
(24.8038 0 0)
(24.9153 0 0)
(25.0209 0 0)
(20.6223 0 0)
(21.4581 0 0)
(22.0985 0 0)
(22.4947 0 0)
(22.8256 0 0)
(23.1099 0 0)
(23.3591 0 0)
(23.5809 0 0)
(23.7808 0 0)
(23.9627 0 0)
(24.1295 0 0)
(24.2836 0 0)
(24.4267 0 0)
(24.5604 0 0)
(24.6857 0 0)
(24.8038 0 0)
(24.9153 0 0)
(25.0209 0 0)
(20.6223 0 0)
(21.4581 0 0)
(22.0984 0 0)
(22.4946 0 0)
(22.8255 0 0)
(23.1098 0 0)
(23.359 0 0)
(23.5809 0 0)
(23.7808 0 0)
(23.9627 0 0)
(24.1295 0 0)
(24.2836 0 0)
(24.4267 0 0)
(24.5604 0 0)
(24.6857 0 0)
(24.8037 0 0)
(24.9152 0 0)
(25.0209 0 0)
(20.6223 0 0)
(21.4581 0 0)
(22.0984 0 0)
(22.4945 0 0)
(22.8254 0 0)
(23.1097 0 0)
(23.3589 0 0)
(23.5808 0 0)
(23.7807 0 0)
(23.9626 0 0)
(24.1295 0 0)
(24.2836 0 0)
(24.4267 0 0)
(24.5604 0 0)
(24.6857 0 0)
(24.8037 0 0)
(24.9152 0 0)
(25.0209 0 0)
(20.6223 0 0)
(21.4581 0 0)
(22.0983 0 0)
(22.4945 0 0)
(22.8254 0 0)
(23.1097 0 0)
(23.3589 0 0)
(23.5808 0 0)
(23.7807 0 0)
(23.9626 0 0)
(24.1295 0 0)
(24.2836 0 0)
(24.4267 0 0)
(24.5604 0 0)
(24.6857 0 0)
(24.8037 0 0)
(24.9152 0 0)
(25.0209 0 0)
(20.6223 0 0)
(21.4581 0 0)
(22.0983 0 0)
(22.4945 0 0)
(22.8254 0 0)
(23.1097 0 0)
(23.3589 0 0)
(23.5808 0 0)
(23.7807 0 0)
(23.9626 0 0)
(24.1295 0 0)
(24.2836 0 0)
(24.4267 0 0)
(24.5604 0 0)
(24.6857 0 0)
(24.8037 0 0)
(24.9152 0 0)
(25.0209 0 0)
(20.6223 0 0)
(21.4581 0 0)
(22.0983 0 0)
(22.4945 0 0)
(22.8254 0 0)
(23.1097 0 0)
(23.3589 0 0)
(23.5808 0 0)
(23.7807 0 0)
(23.9626 0 0)
(24.1295 0 0)
(24.2836 0 0)
(24.4267 0 0)
(24.5604 0 0)
(24.6857 0 0)
(24.8037 0 0)
(24.9152 0 0)
(25.0209 0 0)
(20.6223 0 0)
(21.4581 0 0)
(22.0983 0 0)
(22.4945 0 0)
(22.8254 0 0)
(23.1097 0 0)
(23.3589 0 0)
(23.5808 0 0)
(23.7807 0 0)
(23.9626 0 0)
(24.1295 0 0)
(24.2836 0 0)
(24.4267 0 0)
(24.5604 0 0)
(24.6857 0 0)
(24.8037 0 0)
(24.9152 0 0)
(25.0209 0 0)
(20.6223 0 0)
(21.4581 0 0)
(22.0984 0 0)
(22.4945 0 0)
(22.8254 0 0)
(23.1097 0 0)
(23.3589 0 0)
(23.5808 0 0)
(23.7807 0 0)
(23.9626 0 0)
(24.1295 0 0)
(24.2836 0 0)
(24.4267 0 0)
(24.5604 0 0)
(24.6857 0 0)
(24.8037 0 0)
(24.9152 0 0)
(25.0209 0 0)
(20.6223 0 0)
(21.4581 0 0)
(22.0984 0 0)
(22.4946 0 0)
(22.8255 0 0)
(23.1098 0 0)
(23.359 0 0)
(23.5809 0 0)
(23.7808 0 0)
(23.9627 0 0)
(24.1295 0 0)
(24.2836 0 0)
(24.4267 0 0)
(24.5604 0 0)
(24.6857 0 0)
(24.8037 0 0)
(24.9152 0 0)
(25.0209 0 0)
(20.6223 0 0)
(21.4581 0 0)
(22.0985 0 0)
(22.4947 0 0)
(22.8256 0 0)
(23.1099 0 0)
(23.3591 0 0)
(23.5809 0 0)
(23.7808 0 0)
(23.9627 0 0)
(24.1295 0 0)
(24.2836 0 0)
(24.4267 0 0)
(24.5604 0 0)
(24.6857 0 0)
(24.8038 0 0)
(24.9153 0 0)
(25.0209 0 0)
(20.6223 0 0)
(21.4582 0 0)
(22.0986 0 0)
(22.4948 0 0)
(22.8257 0 0)
(23.11 0 0)
(23.3592 0 0)
(23.581 0 0)
(23.7809 0 0)
(23.9628 0 0)
(24.1296 0 0)
(24.2836 0 0)
(24.4268 0 0)
(24.5604 0 0)
(24.6857 0 0)
(24.8038 0 0)
(24.9153 0 0)
(25.0209 0 0)
(20.6223 0 0)
(21.4582 0 0)
(22.0988 0 0)
(22.4951 0 0)
(22.826 0 0)
(23.1102 0 0)
(23.3594 0 0)
(23.5812 0 0)
(23.781 0 0)
(23.9628 0 0)
(24.1296 0 0)
(24.2837 0 0)
(24.4268 0 0)
(24.5604 0 0)
(24.6858 0 0)
(24.8038 0 0)
(24.9153 0 0)
(25.0209 0 0)
(20.6224 0 0)
(21.4585 0 0)
(22.0991 0 0)
(22.4954 0 0)
(22.8262 0 0)
(23.1104 0 0)
(23.3595 0 0)
(23.5813 0 0)
(23.7811 0 0)
(23.9629 0 0)
(24.1297 0 0)
(24.2837 0 0)
(24.4268 0 0)
(24.5604 0 0)
(24.6858 0 0)
(24.8038 0 0)
(24.9153 0 0)
(25.0209 0 0)
(20.6224 0 0)
(21.4591 0 0)
(22.0996 0 0)
(22.4957 0 0)
(22.8264 0 0)
(23.1106 0 0)
(23.3597 0 0)
(23.5814 0 0)
(23.7812 0 0)
(23.963 0 0)
(24.1297 0 0)
(24.2837 0 0)
(24.4268 0 0)
(24.5604 0 0)
(24.6858 0 0)
(24.8038 0 0)
(24.9153 0 0)
(25.0209 0 0)
(20.6217 0 0)
(21.4589 0 0)
(22.0986 0 0)
(22.4947 0 0)
(22.8256 0 0)
(23.1099 0 0)
(23.3591 0 0)
(23.5809 0 0)
(23.7808 0 0)
(23.9626 0 0)
(24.1295 0 0)
(24.2835 0 0)
(24.4267 0 0)
(24.5603 0 0)
(24.6857 0 0)
(24.8037 0 0)
(24.9152 0 0)
(25.0209 0 0)
(20.3867 0 0)
(20.3818 0 0)
(20.6202 0 0)
(21.1284 0 0)
(21.1271 0 0)
(20.3825 0 0)
(20.3885 0 0)
(20.3825 0 0)
(20.3899 0 0)
(20.3884 0 0)
(20.6175 0 0)
(21.1278 0 0)
(21.1295 0 0)
(20.3843 0 0)
(20.3844 0 0)
(20.6224 0 0)
(21.1297 0 0)
(21.1297 0 0)
(20.3899 0 0)
(20.3899 0 0)
(20.6224 0 0)
(21.1293 0 0)
(21.1295 0 0)
(20.3899 0 0)
(20.3899 0 0)
(20.6223 0 0)
(21.1292 0 0)
(21.1292 0 0)
(20.3899 0 0)
(20.3899 0 0)
(20.6223 0 0)
(21.1291 0 0)
(21.1291 0 0)
(20.3899 0 0)
(20.3899 0 0)
(20.6223 0 0)
(21.1291 0 0)
(21.1291 0 0)
(20.3899 0 0)
(20.3899 0 0)
(20.6223 0 0)
(21.1291 0 0)
(21.1291 0 0)
(20.3899 0 0)
(20.3899 0 0)
(20.6223 0 0)
(21.1291 0 0)
(21.1291 0 0)
(20.3899 0 0)
(20.3899 0 0)
(20.6223 0 0)
(21.1291 0 0)
(21.1291 0 0)
(20.3899 0 0)
(20.3899 0 0)
(20.6223 0 0)
(21.1291 0 0)
(21.1291 0 0)
(20.3899 0 0)
(20.3899 0 0)
(20.6223 0 0)
(21.1291 0 0)
(21.1291 0 0)
(20.3899 0 0)
(20.3899 0 0)
(20.6223 0 0)
(21.1291 0 0)
(21.1291 0 0)
(20.3899 0 0)
(20.3899 0 0)
(20.6223 0 0)
(21.1291 0 0)
(21.1291 0 0)
(20.3899 0 0)
(20.3899 0 0)
(20.6223 0 0)
(21.1291 0 0)
(21.1291 0 0)
(20.3899 0 0)
(20.3899 0 0)
(20.6223 0 0)
(21.1291 0 0)
(21.1291 0 0)
(20.3899 0 0)
(20.3899 0 0)
(20.6223 0 0)
(21.1291 0 0)
(21.1291 0 0)
(20.3899 0 0)
(20.3899 0 0)
(20.6224 0 0)
(21.1292 0 0)
(21.1292 0 0)
(20.3899 0 0)
(20.3899 0 0)
(20.6224 0 0)
(21.1294 0 0)
(21.1293 0 0)
(20.3894 0 0)
(20.3899 0 0)
(20.6223 0 0)
(21.13 0 0)
(21.1297 0 0)
(20.3867 0 0)
(20.3898 0 0)
(20.3894 0 0)
(20.3899 0 0)
(20.3899 0 0)
(20.3899 0 0)
(20.3899 0 0)
(20.3899 0 0)
(20.3899 0 0)
(20.3899 0 0)
(20.3899 0 0)
(20.3899 0 0)
(20.3899 0 0)
(20.3899 0 0)
(20.3899 0 0)
(20.3899 0 0)
(20.3899 0 0)
(20.3899 0 0)
(20.3899 0 0)
(20.3899 0 0)
(20.3899 0 0)
(20.3899 0 0)
(20.3899 0 0)
(20.3899 0 0)
(20.3899 0 0)
(20.3899 0 0)
(20.3899 0 0)
(20.3899 0 0)
(20.3899 0 0)
(20.3899 0 0)
(20.3899 0 0)
(20.3899 0 0)
(20.3899 0 0)
(20.3899 0 0)
(20.3899 0 0)
(20.3898 0 0)
(20.3899 0 0)
(20.6174 0 0)
(20.8375 0 0)
(20.8373 0 0)
(21.4579 0 0)
(21.7397 0 0)
(21.7386 0 0)
(20.6222 0 0)
(20.8409 0 0)
(20.8405 0 0)
(20.6224 0 0)
(20.8408 0 0)
(20.8408 0 0)
(21.4585 0 0)
(21.7401 0 0)
(21.7404 0 0)
(20.6223 0 0)
(20.8407 0 0)
(20.8407 0 0)
(21.4583 0 0)
(21.7398 0 0)
(21.7399 0 0)
(20.6223 0 0)
(20.8407 0 0)
(20.8407 0 0)
(21.4582 0 0)
(21.7397 0 0)
(21.7398 0 0)
(20.6223 0 0)
(20.8406 0 0)
(20.8407 0 0)
(21.4581 0 0)
(21.7396 0 0)
(21.7397 0 0)
(20.6223 0 0)
(20.8406 0 0)
(20.8406 0 0)
(21.4581 0 0)
(21.7396 0 0)
(21.7396 0 0)
(20.6223 0 0)
(20.8406 0 0)
(20.8406 0 0)
(21.4581 0 0)
(21.7396 0 0)
(21.7396 0 0)
(20.6223 0 0)
(20.8406 0 0)
(20.8406 0 0)
(21.4581 0 0)
(21.7396 0 0)
(21.7396 0 0)
(20.6223 0 0)
(20.8406 0 0)
(20.8406 0 0)
(21.4581 0 0)
(21.7396 0 0)
(21.7396 0 0)
(20.6223 0 0)
(20.8406 0 0)
(20.8406 0 0)
(21.4581 0 0)
(21.7396 0 0)
(21.7396 0 0)
(20.6223 0 0)
(20.8406 0 0)
(20.8406 0 0)
(21.4581 0 0)
(21.7396 0 0)
(21.7396 0 0)
(20.6223 0 0)
(20.8406 0 0)
(20.8406 0 0)
(21.4581 0 0)
(21.7396 0 0)
(21.7396 0 0)
(20.6223 0 0)
(20.8406 0 0)
(20.8406 0 0)
(21.4581 0 0)
(21.7396 0 0)
(21.7396 0 0)
(20.6223 0 0)
(20.8406 0 0)
(20.8406 0 0)
(21.4581 0 0)
(21.7397 0 0)
(21.7396 0 0)
(20.6223 0 0)
(20.8407 0 0)
(20.8407 0 0)
(21.4582 0 0)
(21.7398 0 0)
(21.7397 0 0)
(20.6223 0 0)
(20.8407 0 0)
(20.8407 0 0)
(21.4583 0 0)
(21.7399 0 0)
(21.7398 0 0)
(20.6224 0 0)
(20.8407 0 0)
(20.8407 0 0)
(21.4587 0 0)
(21.7404 0 0)
(21.7401 0 0)
(20.6225 0 0)
(20.841 0 0)
(20.8409 0 0)
(21.4594 0 0)
(21.7411 0 0)
(21.7408 0 0)
(20.6204 0 0)
(20.8399 0 0)
(20.8408 0 0)
(21.4574 0 0)
(21.7392 0 0)
(21.7406 0 0)
(20.8396 0 0)
(20.8384 0 0)
(20.6186 0 0)
(20.8377 0 0)
(20.8387 0 0)
(20.6188 0 0)
(20.8409 0 0)
(20.841 0 0)
(20.6224 0 0)
(20.8407 0 0)
(20.8407 0 0)
(20.6224 0 0)
(20.8407 0 0)
(20.8407 0 0)
(20.6223 0 0)
(20.8407 0 0)
(20.8407 0 0)
(20.6223 0 0)
(20.8406 0 0)
(20.8406 0 0)
(20.6223 0 0)
(20.8406 0 0)
(20.8406 0 0)
(20.6223 0 0)
(20.8406 0 0)
(20.8406 0 0)
(20.6223 0 0)
(20.8406 0 0)
(20.8406 0 0)
(20.6223 0 0)
(20.8406 0 0)
(20.8406 0 0)
(20.6223 0 0)
(20.8406 0 0)
(20.8406 0 0)
(20.6223 0 0)
(20.8406 0 0)
(20.8406 0 0)
(20.6223 0 0)
(20.8406 0 0)
(20.8406 0 0)
(20.6223 0 0)
(20.8406 0 0)
(20.8406 0 0)
(20.6223 0 0)
(20.8407 0 0)
(20.8406 0 0)
(20.6223 0 0)
(20.8407 0 0)
(20.8407 0 0)
(20.6223 0 0)
(20.8407 0 0)
(20.8407 0 0)
(20.6223 0 0)
(20.8408 0 0)
(20.8408 0 0)
(20.6224 0 0)
(20.8411 0 0)
(20.8411 0 0)
(20.6225 0 0)
(21.4591 0 0)
(21.7408 0 0)
(21.7408 0 0)
(20.2276 0 0)
(20.1692 0 0)
(20.1231 0 0)
(20.2322 0 0)
(20.1717 0 0)
(20.1238 0 0)
(20.2339 0 0)
(20.1726 0 0)
(20.1241 0 0)
(20.2283 0 0)
(20.1696 0 0)
(20.1232 0 0)
(20.2283 0 0)
(20.1696 0 0)
(20.1232 0 0)
(20.2339 0 0)
(20.1726 0 0)
(20.1241 0 0)
(20.2353 0 0)
(20.1733 0 0)
(20.1244 0 0)
(20.2301 0 0)
(20.1705 0 0)
(20.1235 0 0)
(20.2301 0 0)
(20.1705 0 0)
(20.1235 0 0)
(20.2353 0 0)
(20.1733 0 0)
(20.1244 0 0)
(20.2353 0 0)
(20.1733 0 0)
(20.1244 0 0)
(20.2353 0 0)
(20.1733 0 0)
(20.1244 0 0)
(20.2353 0 0)
(20.1733 0 0)
(20.1244 0 0)
(20.2353 0 0)
(20.1733 0 0)
(20.1244 0 0)
(20.2353 0 0)
(20.1733 0 0)
(20.1244 0 0)
(20.2353 0 0)
(20.1733 0 0)
(20.1244 0 0)
(20.2353 0 0)
(20.1733 0 0)
(20.1244 0 0)
(20.2353 0 0)
(20.1733 0 0)
(20.1244 0 0)
(20.2353 0 0)
(20.1733 0 0)
(20.1244 0 0)
(20.2353 0 0)
(20.1733 0 0)
(20.1244 0 0)
(20.2353 0 0)
(20.1733 0 0)
(20.1244 0 0)
(20.2353 0 0)
(20.1733 0 0)
(20.1244 0 0)
(20.2353 0 0)
(20.1733 0 0)
(20.1244 0 0)
(20.2353 0 0)
(20.1733 0 0)
(20.1244 0 0)
(20.2353 0 0)
(20.1733 0 0)
(20.1244 0 0)
(20.2353 0 0)
(20.1733 0 0)
(20.1244 0 0)
(20.2353 0 0)
(20.1733 0 0)
(20.1244 0 0)
(20.2353 0 0)
(20.1733 0 0)
(20.1244 0 0)
(20.2353 0 0)
(20.1733 0 0)
(20.1244 0 0)
(20.2353 0 0)
(20.1733 0 0)
(20.1244 0 0)
(20.2353 0 0)
(20.1733 0 0)
(20.1244 0 0)
(20.2353 0 0)
(20.1733 0 0)
(20.1244 0 0)
(20.2353 0 0)
(20.1733 0 0)
(20.1244 0 0)
(20.2353 0 0)
(20.1733 0 0)
(20.1244 0 0)
(20.2353 0 0)
(20.1733 0 0)
(20.1244 0 0)
(20.2353 0 0)
(20.1733 0 0)
(20.1244 0 0)
(20.2353 0 0)
(20.1733 0 0)
(20.1244 0 0)
(20.2353 0 0)
(20.1733 0 0)
(20.1244 0 0)
(20.2353 0 0)
(20.1733 0 0)
(20.1244 0 0)
(20.2353 0 0)
(20.1733 0 0)
(20.1244 0 0)
(20.2353 0 0)
(20.1733 0 0)
(20.1244 0 0)
(20.2353 0 0)
(20.1733 0 0)
(20.1244 0 0)
(20.2348 0 0)
(20.1731 0 0)
(20.1243 0 0)
(20.2322 0 0)
(20.1717 0 0)
(20.1238 0 0)
(20.2348 0 0)
(20.1731 0 0)
(20.1243 0 0)
(20.2352 0 0)
(20.1733 0 0)
(20.1243 0 0)
(20.2353 0 0)
(20.1733 0 0)
(20.1244 0 0)
(20.2353 0 0)
(20.1733 0 0)
(20.1244 0 0)
(20.2353 0 0)
(20.1733 0 0)
(20.1244 0 0)
(20.2353 0 0)
(20.1733 0 0)
(20.1244 0 0)
(20.2353 0 0)
(20.1733 0 0)
(20.1244 0 0)
(20.2353 0 0)
(20.1733 0 0)
(20.1244 0 0)
(20.2353 0 0)
(20.1733 0 0)
(20.1244 0 0)
(20.2353 0 0)
(20.1733 0 0)
(20.1244 0 0)
(20.2353 0 0)
(20.1733 0 0)
(20.1244 0 0)
(20.2353 0 0)
(20.1733 0 0)
(20.1244 0 0)
(20.2353 0 0)
(20.1733 0 0)
(20.1244 0 0)
(20.2353 0 0)
(20.1733 0 0)
(20.1244 0 0)
(20.2353 0 0)
(20.1733 0 0)
(20.1244 0 0)
(20.2353 0 0)
(20.1733 0 0)
(20.1244 0 0)
(20.2353 0 0)
(20.1733 0 0)
(20.1244 0 0)
(20.2353 0 0)
(20.1733 0 0)
(20.1244 0 0)
(20.2353 0 0)
(20.1733 0 0)
(20.1244 0 0)
(20.2353 0 0)
(20.1733 0 0)
(20.1244 0 0)
(20.2353 0 0)
(20.1733 0 0)
(20.1244 0 0)
(20.2353 0 0)
(20.1733 0 0)
(20.1244 0 0)
(20.2353 0 0)
(20.1733 0 0)
(20.1244 0 0)
(20.2353 0 0)
(20.1733 0 0)
(20.1244 0 0)
(20.2353 0 0)
(20.1733 0 0)
(20.1244 0 0)
(20.2353 0 0)
(20.1733 0 0)
(20.1244 0 0)
(20.2353 0 0)
(20.1733 0 0)
(20.1244 0 0)
(20.2353 0 0)
(20.1733 0 0)
(20.1244 0 0)
(20.2353 0 0)
(20.1733 0 0)
(20.1244 0 0)
(20.2353 0 0)
(20.1733 0 0)
(20.1244 0 0)
(20.2353 0 0)
(20.1733 0 0)
(20.1244 0 0)
(20.2353 0 0)
(20.1733 0 0)
(20.1244 0 0)
(20.2353 0 0)
(20.1733 0 0)
(20.1244 0 0)
(20.2353 0 0)
(20.1733 0 0)
(20.1244 0 0)
(20.2353 0 0)
(20.1733 0 0)
(20.1244 0 0)
(20.2352 0 0)
(20.1733 0 0)
(20.1243 0 0)
)
;
    }
    outlet
    {
        type            inletOutlet;
        inletValue      uniform (0 0 0);
        value           uniform (20 0 0);
    }
    upperPatch
    {
        type            slip;
    }
    ground
    {
        type            noSlip;
    }
}


// ************************************************************************* //
